 Gaussian 16, Revision A.03,
 Gaussian 16:  ES64L-G16RevA.03 25-Dec-2016

 ----------------------------------------
 #P B3LYP/def2tzvp nosymm Density=Current
 ----------------------------------------

 ------------
 Single-Point
 ------------
 Symbolic Z-matrix:
 Charge =  1 Multiplicity = 1

                          Input orientation:
 ---------------------------------------------------------------------
 Center     Atomic      Atomic             Coordinates (Angstroms)
 Number     Number       Type             X           Y           Z
 ---------------------------------------------------------------------
      1          6           0        0.000000   -1.794380    0.000000
      2          6           0        1.230449   -1.116294    0.000000
      3          6           0        1.241080    0.252807    0.000000
      4          6           0        0.000000    0.979134    0.000000
      5          6           0       -1.241080    0.252807    0.000000
      6          6           0       -1.230449   -1.116294    0.000000
      7          1           0        0.000000   -2.878096    0.000000
      8          1           0        2.154596   -1.677620    0.000000
      9          1           0        2.172685    0.804523    0.000000
     10          1           0       -2.172685    0.804523    0.000000
     11          1           0       -2.154596   -1.677620    0.000000
     12          6           0        0.000000    2.343288    0.000000
     13          1           0        0.924737    2.908932    0.000000
     14          1           0       -0.924737    2.908932    0.000000
 ---------------------------------------------------------------------

 SCF Done:  E(RB3LYP) =  -270.756227177     A.U. after   14 cycles

 Alpha  occ. eigenvalues --  -10.43075 -10.40507 -10.40387 -10.39932 -10.39929
 Alpha  occ. eigenvalues --  -10.37639 -10.37638  -1.07568  -0.99673  -0.96135
 Alpha  occ. eigenvalues --   -0.88882  -0.81470  -0.78980  -0.71962  -0.68702
 Alpha  occ. eigenvalues --   -0.67068  -0.63209  -0.62522  -0.61181  -0.58685
 Alpha  occ. eigenvalues --   -0.56241  -0.54440  -0.49643  -0.46646
 Alpha virt. eigenvalues --   -0.33147  -0.20864  -0.18609  -0.11160  -0.09007
 Alpha virt. eigenvalues --   -0.08869  -0.06157  -0.05932  -0.04823  -0.03997
 Alpha virt. eigenvalues --   -0.03223  -0.02854   0.00209   0.02530   0.02727

 Mulliken charges:
               1
     1  C   -0.011484
     2  C   -0.090092
     3  C   -0.100742
     4  C    0.166129
     5  C   -0.100742
     6  C   -0.090092
     7  H    0.192399
     8  H    0.182888
     9  H    0.179352
    10  H    0.179352
    11  H    0.182888
    12  C   -0.083761
    13  H    0.196952
    14  H    0.196952
 Sum of Mulliken charges =   1.00000

 Dipole moment (field-independent basis, Debye):
    X=             -0.0000    Y=              1.5726    Z=             -0.0000  Tot=              1.5726
 Quadrupole moment (field-independent basis, Debye-Ang):
   XX=            -27.3051   YY=            -16.1847   ZZ=            -41.7707
   XY=             -0.0000   XZ=             -0.0000   YZ=             -0.0000

 Normal termination of Gaussian 16 at Tue Jan 14 13:56:47 2025.
