 Gaussian 16, Revision A.03,
 Gaussian 16:  ES64L-G16RevA.03 25-Dec-2016

 ----------------------------------------
 #P B3LYP/def2tzvp nosymm Density=Current
 ----------------------------------------

 ------------
 Single-Point
 ------------
 Symbolic Z-matrix:
 Charge =  0 Multiplicity = 1

                          Input orientation:
 ---------------------------------------------------------------------
 Center     Atomic      Atomic             Coordinates (Angstroms)
 Number     Number       Type             X           Y           Z
 ---------------------------------------------------------------------
      1          6           0        0.000000    1.442557    0.000000
      2          6           0        1.235761    0.671624    0.000000
      3          6           0        1.235761   -0.671624    0.000000
      4          6           0        0.000000   -1.442557    0.000000
      5          6           0       -1.235761   -0.671624    0.000000
      6          6           0       -1.235761    0.671624    0.000000
      7          6           0        0.000000    2.791184    0.000000
      8          1           0        2.171315    1.218843    0.000000
      9          1           0        2.171315   -1.218843    0.000000
     10          6           0        0.000000   -2.791184    0.000000
     11          1           0       -2.171315   -1.218843    0.000000
     12          1           0       -2.171315    1.218843    0.000000
     13          1           0       -0.923636   -3.355160    0.000000
     14          1           0        0.923636   -3.355160    0.000000
     15          1           0        0.923636    3.355160    0.000000
     16          1           0       -0.923636    3.355160    0.000000
 ---------------------------------------------------------------------

 SCF Done:  E(RB3LYP) =  -309.735176955     A.U. after   12 cycles

 Alpha  occ. eigenvalues --  -10.19208 -10.19206 -10.18166 -10.18163 -10.18083
 Alpha  occ. eigenvalues --  -10.18083 -10.17357 -10.17356  -0.86578  -0.79835
 Alpha  occ. eigenvalues --   -0.76058  -0.72407  -0.62802  -0.61070  -0.57772
 Alpha  occ. eigenvalues --   -0.50065  -0.49154  -0.47150  -0.43317  -0.42078
 Alpha  occ. eigenvalues --   -0.41729  -0.38582  -0.38058  -0.37992  -0.33114
 Alpha  occ. eigenvalues --   -0.31266  -0.27431  -0.21018
 Alpha virt. eigenvalues --   -0.07237  -0.00815   0.03303   0.05262   0.06316
 Alpha virt. eigenvalues --    0.06455   0.09201   0.09761   0.12340   0.12408
 Alpha virt. eigenvalues --    0.12656   0.13652   0.14062   0.14865   0.18188

 Mulliken charges:
               1
     1  C    0.192213
     2  C   -0.168337
     3  C   -0.168337
     4  C    0.192213
     5  C   -0.168337
     6  C   -0.168337
     7  C   -0.284950
     8  H    0.100817
     9  H    0.100817
    10  C   -0.284950
    11  H    0.100817
    12  H    0.100817
    13  H    0.113888
    14  H    0.113888
    15  H    0.113888
    16  H    0.113888
 Sum of Mulliken charges =  -0.00000

 Dipole moment (field-independent basis, Debye):
    X=              0.0000    Y=             -0.0000    Z=              0.0000  Tot=              0.0000
 Quadrupole moment (field-independent basis, Debye-Ang):
   XX=            -42.9839   YY=            -44.1524   ZZ=            -53.2689
   XY=              0.0000   XZ=              0.0000   YZ=              0.0000

 Normal termination of Gaussian 16 at Tue Jan 14 13:32:58 2025.
