 Gaussian 16, Revision A.03,
 Gaussian 16:  ES64L-G16RevA.03 25-Dec-2016

 -------------------------
 # opt freq b3lyp def2tzvp
 -------------------------

 --------
 opt meta
 --------
 Symbolic Z-matrix:
 Charge = -1 Multiplicity = 1

 SCF Done:  E(RB3LYP) =  -459.689174031     A.U. after   20 cycles
 SCF Done:  E(RB3LYP) =  -459.711610701     A.U. after   14 cycles
 SCF Done:  E(RB3LYP) =  -459.715335134     A.U. after   13 cycles
 SCF Done:  E(RB3LYP) =  -459.715378484     A.U. after   12 cycles
 SCF Done:  E(RB3LYP) =  -459.713848384     A.U. after   14 cycles
 SCF Done:  E(RB3LYP) =  -459.715472666     A.U. after   11 cycles
 SCF Done:  E(RB3LYP) =  -459.715474072     A.U. after    9 cycles
 SCF Done:  E(RB3LYP) =  -459.715474129     A.U. after    8 cycles
 Optimization completed.
    -- Stationary point found.
 Normal termination of Gaussian 16 at Mon Jan 20 15:22:51 2025.

 --------------------------------------------------------------------
 #N Geom=AllCheck Guess=TCheck SCRF=Check GenChk RB3LYP/def2TZVP Freq
 --------------------------------------------------------------------

 Structure from the checkpoint file:  "C6H5CH2-.chk"
 --------
 opt meta
 --------
 Charge = -1 Multiplicity = 1

                         Standard orientation:
 ---------------------------------------------------------------------
 Center     Atomic      Atomic             Coordinates (Angstroms)
 Number     Number       Type             X           Y           Z
 ---------------------------------------------------------------------
      1          6           0       -0.241373    1.481370    0.000034
      2          6           0        1.110995    1.840870    0.000001
      3          6           0        2.126033    0.908052   -0.000091
      4          6           0        1.880077   -0.517846   -0.000003
      5          6           0        0.478731   -0.855168   -0.000023
      6          6           0       -0.528975    0.097533    0.000062
      7          1           0       -1.028755    2.218682    0.000495
      8          1           0        1.374420    2.896006   -0.000089
      9          1           0        3.158082    1.247326   -0.000215
     10          1           0        0.192859   -1.899910   -0.000176
     11          6           0        2.881866   -1.469748    0.000077
     12          1           0        3.927152   -1.184681    0.000000
     13          1           0        2.650327   -2.527619    0.000033
     14          6           0       -1.918417   -0.389620    0.000033
     15          8           0       -2.300771   -1.544232   -0.000011
     16          8           0       -2.862037    0.611855   -0.000033
     17          1           0       -3.705240    0.136562   -0.000226
 ---------------------------------------------------------------------

 SCF Done:  E(RB3LYP) =  -459.715474129     A.U. after    1 cycles

 The electronic state is 1-A.
 Alpha  occ. eigenvalues --  -19.03809 -18.97585 -10.16452 -10.02616 -10.01196
 Alpha  occ. eigenvalues --  -10.00946 -10.00169  -9.99680  -9.99363  -9.95257
 Alpha  occ. eigenvalues --   -0.97081  -0.87613  -0.68787  -0.60836  -0.58842
 Alpha  occ. eigenvalues --   -0.50786  -0.49000  -0.42146  -0.41852  -0.35829
 Alpha  occ. eigenvalues --   -0.34577  -0.31638  -0.31381  -0.29020  -0.28622
 Alpha  occ. eigenvalues --   -0.26039  -0.24131  -0.21239  -0.20541  -0.19418
 Alpha  occ. eigenvalues --   -0.19132  -0.16802  -0.14608  -0.11237  -0.09892
 Alpha  occ. eigenvalues --    0.02109
 Alpha virt. eigenvalues --    0.10200   0.14817   0.17375   0.19062   0.21765
 Alpha virt. eigenvalues --    0.21779   0.22694   0.24419   0.25249   0.26492
 Alpha virt. eigenvalues --    0.28069   0.29350   0.30696   0.32419   0.33288

 Mulliken charges:
               1
     1  C   -0.325761
     2  C   -0.042758
     3  C   -0.245135
     4  C    0.288126
     5  C   -0.326602
     6  C    0.089902
     7  H    0.060226
     8  H    0.032181
     9  H    0.026995
    10  H    0.068206
    11  C   -0.506297
    12  H    0.028576
    13  H    0.035505
    14  C    0.315759
    15  O   -0.376324
    16  O   -0.402200
    17  H    0.279601
 Sum of Mulliken charges =  -1.00000

 Dipole moment (field-independent basis, Debye):
    X=             -4.3506    Y=              2.4383    Z=             -0.0003  Tot=              4.9873
 Quadrupole moment (field-independent basis, Debye-Ang):
   XX=            -81.0939   YY=            -74.5596   ZZ=            -66.8883
   XY=              3.2871   XZ=             -0.0005   YZ=              0.0014

  Exact polarizability: 165.145 -22.278 139.247   0.001  -0.002  61.779
 Approx polarizability: 259.217 -55.391 261.156   0.004  -0.007  98.471

                      1                      2                      3
                      A                      A                      A
 Frequencies --      2.8917                 3.0383                 8.8417
 Red. masses --      8.6772                 8.2316                 5.6559
 Frc consts  --      0.0000                 0.0000                 0.0003
 IR Inten    --      2.4826                 2.1783                 0.0764

                      4                      5                      6
                      A                      A                      A
 Frequencies --     45.4661               122.4721               141.0949
 Red. masses --     10.2410                 8.9066                 4.5034
 Frc consts  --      0.0125                 0.0787                 0.0528
 IR Inten    --      2.2296                 4.6850                 0.8591

                      7                      8                      9
                      A                      A                      A
 Frequencies --    149.0934               244.6744               304.8004
 Red. masses --      4.3318                 7.4795                 4.4910
 Frc consts  --      0.0567                 0.2638                 0.2458
 IR Inten    --      1.4390                 1.3814                 0.2833

                     10                     11                     12
                      A                      A                      A
 Frequencies --    391.7734               424.2429               428.2888
 Red. masses --      7.3501                 1.2412                 2.0756
 Frc consts  --      0.6647                 0.1316                 0.2243
 IR Inten    --      5.6147                33.7055                50.2411

                     13                     14                     15
                      A                      A                      A
 Frequencies --    493.2505               514.2294               551.6614
 Red. masses --      2.4616                 6.3795                 1.0303
 Frc consts  --      0.3529                 0.9939                 0.1847
 IR Inten    --      0.3056                 0.7710                 6.6264

                     16                     17                     18
                      A                      A                      A
 Frequencies --    584.5618               600.8618               639.5057
 Red. masses --      1.4561                 1.4570                 4.9663
 Frc consts  --      0.2932                 0.3099                 1.1967
 IR Inten    --     84.0518                31.6767                39.6015

                     19                     20                     21
                      A                      A                      A
 Frequencies --    671.1966               693.3132               758.8849
 Red. masses --      1.9997                 5.6043                 1.8790
 Frc consts  --      0.5308                 1.5872                 0.6376
 IR Inten    --      7.7069                21.4761                24.0912

                     22                     23                     24
                      A                      A                      A
 Frequencies --    797.5800               834.6057               862.0085
 Red. masses --      3.7638                 2.8514                 1.4451
 Frc consts  --      1.4107                 1.1702                 0.6327
 IR Inten    --     17.0336                 5.9227                 0.2299

                     25                     26                     27
                      A                      A                      A
 Frequencies --    866.9944               886.2330               979.3265
 Red. masses --      1.3691                 1.2754                 5.8367
 Frc consts  --      0.6063                 0.5902                 3.2982
 IR Inten    --      8.2914                 1.4616               123.8128

                     28                     29                     30
                      A                      A                      A
 Frequencies --   1082.5905              1093.5998              1145.4664
 Red. masses --      2.8638                 1.6930                 1.9804
 Frc consts  --      1.9775                 1.1929                 1.5310
 IR Inten    --    142.8277                 1.8334               186.9261

                     31                     32                     33
                      A                      A                      A
 Frequencies --   1181.4424              1230.3950              1294.3447
 Red. masses --      1.1709                 2.8619                 1.7098
 Frc consts  --      0.9630                 2.5527                 1.6877
 IR Inten    --     32.1928               223.8611                23.8461

                     34                     35                     36
                      A                      A                      A
 Frequencies --   1337.3678              1345.7358              1391.1219
 Red. masses --      1.9533                 2.9726                 1.0984
 Frc consts  --      2.0584                 3.1718                 1.2524
 IR Inten    --     44.6770                79.6680                 5.1422

                     37                     38                     39
                      A                      A                      A
 Frequencies --   1446.4695              1492.0233              1538.2883
 Red. masses --      4.1370                 2.5802                 3.5229
 Frc consts  --      5.0998                 3.3842                 4.9117
 IR Inten    --     97.9722                29.7693                25.5616

                     40                     41                     42
                      A                      A                      A
 Frequencies --   1611.3548              1743.9663              3029.0344
 Red. masses --      5.9318                 8.3596                 1.0083
 Frc consts  --      9.0744                14.9800                 5.4509
 IR Inten    --    223.8784               399.0217                45.8818

                     43                     44                     45
                      A                      A                      A
 Frequencies --   3057.4840              3104.4321              3131.6975
 Red. masses --      1.0080                 1.0837                 1.0913
 Frc consts  --      5.5518                 6.1534                 6.3060
 IR Inten    --     59.7999                40.5519                86.2962

                     46                     47                     48
                      A                      A                      A
 Frequencies --   3170.2912              3216.5786              3744.5806
 Red. masses --      1.0875                 1.0904                 1.0638
 Frc consts  --      6.4396                 6.6467                 8.7885
 IR Inten    --      9.4439                 6.6114                37.2611

 - Thermochemistry -
 -------------------
 Temperature   298.150 Kelvin.  Pressure   1.00000 Atm.
 Atom     1 has atomic number  6 and mass  12.00000

 Molecular mass:   135.04460 amu.
 Principal axes and moments of inertia in atomic units:
                           1         2         3
     Eigenvalues --   668.637751882.376482551.01422
           X            0.99982  -0.01908  -0.00000
           Y            0.01908   0.99982   0.00000
           Z            0.00000  -0.00000   1.00000
 This molecule is an asymmetric top.
 Rotational symmetry number  1.
 Warning -- assumption of classical behavior for rotation
           may cause significant error
 Rotational temperatures (Kelvin)      0.12954     0.04601     0.03395
 Rotational constants (GHZ):           2.69913     0.95876     0.70746
 Zero-point vibrational energy     325319.4 (Joules/Mol)
                                   77.75320 (Kcal/Mol)
 Warning -- explicit consideration of  17 degrees of freedom as
           vibrations may cause significant error
 Vibrational temperatures:      4.16     4.37    12.72    65.42   176.21
          (Kelvin)            203.00   214.51   352.03   438.54   563.67
                              610.39   616.21   709.68   739.86   793.72
                              841.05   864.51   920.11   965.70   997.52
                             1091.87  1147.54  1200.81  1240.24  1247.41
                             1275.09  1409.03  1557.61  1573.45  1648.07
                             1699.83  1770.26  1862.27  1924.17  1936.21
                             2001.51  2081.15  2146.69  2213.25  2318.38
                             2509.18  4358.10  4399.04  4466.59  4505.81
                             4561.34  4627.94  5387.62

 Zero-point correction=                           0.123908 (Hartree/Particle)
 Thermal correction to Energy=                    0.136138
 Thermal correction to Enthalpy=                  0.137082
 Thermal correction to Gibbs Free Energy=         0.078106
 Sum of electronic and zero-point Energies=           -459.591567
 Sum of electronic and thermal Energies=              -459.579336
 Sum of electronic and thermal Enthalpies=            -459.578392
 Sum of electronic and thermal Free Energies=         -459.637368

                     E (Thermal)             CV                S
                      KCal/Mol        Cal/Mol-Kelvin    Cal/Mol-Kelvin
 Total                   85.428             41.841            124.126
 Electronic               0.000              0.000              0.000
 Translational            0.889              2.981             40.614
 Rotational               0.889              2.981             29.553
 Vibrational             83.650             35.879             53.960
 Vibration     1          0.592              1.987             10.476
 Vibration     2          0.592              1.987             10.378
 Vibration     3          0.593              1.987              8.256
 Vibration     4          0.595              1.979              5.005
 Vibration     5          0.610              1.930              3.061
 Vibration     6          0.615              1.912              2.789
 Vibration     7          0.618              1.904              2.684
 Vibration     8          0.660              1.772              1.769
 Vibration     9          0.696              1.665              1.390
 Vibration    10          0.759              1.488              0.993
 Vibration    11          0.786              1.418              0.878
 Vibration    12          0.790              1.409              0.864
 Vibration    13          0.849              1.265              0.675
 Vibration    14          0.869              1.218              0.623
 Vibration    15          0.907              1.136              0.541
 Vibration    16          0.942              1.065              0.477
 Vibration    17          0.959              1.030              0.448

 Optimization completed.
    -- Stationary point found.
 Normal termination of Gaussian 16 at Mon Jan 20 15:49:13 2025.
