 Gaussian 16, Revision A.03,
 Gaussian 16:  ES64L-G16RevA.03 25-Dec-2016

 -------------------------
 # opt freq b3lyp def2tzvp
 -------------------------

 ---
 opt
 ---
 Symbolic Z-matrix:
 Charge =  1 Multiplicity = 1

 SCF Done:  E(RB3LYP) =  -495.250415816     A.U. after   23 cycles
 SCF Done:  E(RB3LYP) =  -495.274544939     A.U. after   13 cycles
 SCF Done:  E(RB3LYP) =  -495.278607200     A.U. after   15 cycles
 SCF Done:  E(RB3LYP) =  -495.274926673     A.U. after   16 cycles
 SCF Done:  E(RB3LYP) =  -495.278837457     A.U. after   13 cycles
 SCF Done:  E(RB3LYP) =  -495.278866520     A.U. after   12 cycles
 SCF Done:  E(RB3LYP) =  -495.278824183     A.U. after   12 cycles
 SCF Done:  E(RB3LYP) =  -495.278873565     A.U. after   10 cycles
 SCF Done:  E(RB3LYP) =  -495.278872975     A.U. after   10 cycles
 SCF Done:  E(RB3LYP) =  -495.278880633     A.U. after   13 cycles
 SCF Done:  E(RB3LYP) =  -495.278811329     A.U. after   16 cycles
 SCF Done:  E(RB3LYP) =  -495.278939074     A.U. after   13 cycles
 SCF Done:  E(RB3LYP) =  -495.277004358     A.U. after   15 cycles
 SCF Done:  E(RB3LYP) =  -495.278983664     A.U. after   15 cycles
 SCF Done:  E(RB3LYP) =  -495.279267733     A.U. after   15 cycles
 SCF Done:  E(RB3LYP) =  -495.279323887     A.U. after   13 cycles
 SCF Done:  E(RB3LYP) =  -495.279325438     A.U. after   13 cycles
 SCF Done:  E(RB3LYP) =  -495.279325628     A.U. after   12 cycles
 SCF Done:  E(RB3LYP) =  -495.279325994     A.U. after   10 cycles
 Optimization completed.
    -- Stationary point found.
 Normal termination of Gaussian 16 at Mon Jan 20 13:05:10 2025.

 --------------------------------------------------------------------
 #N Geom=AllCheck Guess=TCheck SCRF=Check GenChk RB3LYP/def2TZVP Freq
 --------------------------------------------------------------------

 Structure from the checkpoint file:  "C6H5O+.chk"
 ---
 opt
 ---
 Charge =  1 Multiplicity = 1

                         Standard orientation:
 ---------------------------------------------------------------------
 Center     Atomic      Atomic             Coordinates (Angstroms)
 Number     Number       Type             X           Y           Z
 ---------------------------------------------------------------------
      1          6           0        0.586279    0.022739    0.019347
      2          6           0       -0.064791   -1.220590   -0.222201
      3          6           0       -1.419251   -1.265626   -0.224212
      4          6           0       -2.206304   -0.022033    0.005885
      5          6           0       -1.463783    1.248026    0.223324
      6          6           0       -0.109219    1.249869    0.209630
      7          1           0        0.534348   -2.108614   -0.372532
      8          1           0       -1.981804   -2.179401   -0.373463
      9          1           0       -2.055978    2.140441    0.385196
     10          1           0        0.466401    2.156012    0.343658
     11          8           0       -3.417327   -0.048369    0.013281
     12          6           0        2.089698    0.093322   -0.031620
     13          8           0        2.601478    0.996058   -0.633945
     14          8           0        2.679827   -0.921848    0.575116
     15          1           0        3.649435   -0.849402    0.500612
 ---------------------------------------------------------------------

 SCF Done:  E(RB3LYP) =  -495.279325994     A.U. after    1 cycles

 The electronic state is 1-A.
 Alpha  occ. eigenvalues --  -19.37248 -19.35863 -19.32604 -10.51335 -10.48270
 Alpha  occ. eigenvalues --  -10.47513 -10.43216 -10.42825 -10.41589 -10.41327
 Alpha  occ. eigenvalues --   -1.31383  -1.27467  -1.23060  -1.09323  -0.99741
 Alpha  occ. eigenvalues --   -0.97296  -0.86112  -0.84576  -0.80777  -0.75066
 Alpha  occ. eigenvalues --   -0.71703  -0.69014  -0.67885  -0.66585  -0.66213
 Alpha  occ. eigenvalues --   -0.65155  -0.63641  -0.62792  -0.59421  -0.58889
 Alpha  occ. eigenvalues --   -0.56629  -0.52431  -0.50242  -0.48684  -0.48175
 Alpha virt. eigenvalues --   -0.38650  -0.23487  -0.23426  -0.17166  -0.12842
 Alpha virt. eigenvalues --   -0.10294  -0.08660  -0.08369  -0.07171  -0.06311
 Alpha virt. eigenvalues --   -0.04162  -0.03779  -0.01659  -0.00262   0.01081

 Mulliken charges:
               1
     1  C    0.229253
     2  C   -0.130653
     3  C   -0.044221
     4  C    0.258321
     5  C   -0.045829
     6  C   -0.124024
     7  H    0.202749
     8  H    0.211723
     9  H    0.211147
    10  H    0.205807
    11  O   -0.115433
    12  C    0.286817
    13  O   -0.192867
    14  O   -0.323798
    15  H    0.371007
 Sum of Mulliken charges =   1.00000

 Dipole moment (field-independent basis, Debye):
    X=              0.6421    Y=             -1.2654    Z=              0.8193  Tot=              1.6385
 Quadrupole moment (field-independent basis, Debye-Ang):
   XX=            -37.5062   YY=            -41.5355   ZZ=            -53.8934
   XY=             -5.4172   XZ=              3.3444   YZ=              3.8728

  Exact polarizability: 146.391   2.806  85.552  -2.668   1.690  46.719
 Approx polarizability: 283.916  15.960 147.264 -12.614  -1.256  78.416

                      1                      2                      3
                      A                      A                      A
 Frequencies --     29.7764                71.5548               175.3657
 Red. masses --      7.2841                 8.5976                 6.5059
 Frc consts  --      0.0038                 0.0259                 0.1179
 IR Inten    --      3.9255                 5.1592                10.0887

                      4                      5                      6
                      A                      A                      A
 Frequencies --    200.9991               310.9934               328.2128
 Red. masses --      5.2872                 3.0934                 9.7083
 Frc consts  --      0.1259                 0.1763                 0.6162
 IR Inten    --      4.1605                 7.1705                 7.3915

                      7                      8                      9
                      A                      A                      A
 Frequencies --    350.7233               439.0298               545.9168
 Red. masses --      5.2095                 5.3803                 2.6749
 Frc consts  --      0.3776                 0.6110                 0.4697
 IR Inten    --     17.9591                 5.0755                 9.3351

                     10                     11                     12
                      A                      A                      A
 Frequencies --    577.5348               580.9443               608.3933
 Red. masses --      4.6406                 6.1610                 1.3496
 Frc consts  --      0.9120                 1.2251                 0.2943
 IR Inten    --     31.0279                44.8098                58.9641

                     13                     14                     15
                      A                      A                      A
 Frequencies --    717.3868               717.9616               776.1673
 Red. masses --      3.5505                 3.9075                 5.7252
 Frc consts  --      1.0766                 1.1867                 2.0321
 IR Inten    --     70.8049                31.4901                 4.8087

                     16                     17                     18
                      A                      A                      A
 Frequencies --    785.2472               819.2732               916.0569
 Red. masses --      1.2547                 5.3723                 1.9005
 Frc consts  --      0.4558                 2.1245                 0.9396
 IR Inten    --      0.3602                17.0890                55.4322

                     19                     20                     21
                      A                      A                      A
 Frequencies --    973.1117              1025.7060              1050.2772
 Red. masses --      3.2350                 1.3544                 1.3808
 Frc consts  --      1.8049                 0.8395                 0.8974
 IR Inten    --     10.3270                 0.1725                 0.2132

                     22                     23                     24
                      A                      A                      A
 Frequencies --   1110.9508              1116.1820              1182.5898
 Red. masses --      2.6733                 2.2587                 1.5376
 Frc consts  --      1.9440                 1.6580                 1.2670
 IR Inten    --     96.5676                48.5270               152.0004

                     25                     26                     27
                      A                      A                      A
 Frequencies --   1200.0731              1235.8778              1372.7995
 Red. masses --      1.2821                 2.0517                 1.8567
 Frc consts  --      1.0879                 1.8463                 2.0616
 IR Inten    --     45.1448                 6.2968                17.5095

                     28                     29                     30
                      A                      A                      A
 Frequencies --   1396.2287              1439.3152              1445.8419
 Red. masses --      2.7853                 2.7759                 2.2335
 Frc consts  --      3.1991                 3.3881                 2.7509
 IR Inten    --    139.7735               102.8562                17.6065

                     31                     32                     33
                      A                      A                      A
 Frequencies --   1539.3108              1654.6879              1718.1359
 Red. masses --      6.0004                 5.9693                10.7139
 Frc consts  --      8.3768                 9.6296                18.6342
 IR Inten    --    132.8141               145.4772                19.3273

                     34                     35                     36
                      A                      A                      A
 Frequencies --   1786.2535              3201.2708              3202.7928
 Red. masses --     11.9303                 1.0906                 1.0905
 Frc consts  --     22.4279                 6.5853                 6.5906
 IR Inten    --    235.7824                 7.8111                 8.1240

                     37                     38                     39
                      A                      A                      A
 Frequencies --   3213.2813              3214.6916              3673.7033
 Red. masses --      1.0973                 1.0991                 1.0647
 Frc consts  --      6.6755                 6.6923                 8.4662
 IR Inten    --     27.7277                 2.3713               279.9224

 - Thermochemistry -
 -------------------
 Temperature   298.150 Kelvin.  Pressure   1.00000 Atm.
 Atom     1 has atomic number  6 and mass  12.00000

 Molecular mass:   137.02387 amu.
 Principal axes and moments of inertia in atomic units:
                           1         2         3
     Eigenvalues --   493.793512185.076402573.25511
           X            0.99997  -0.00701   0.00282
           Y            0.00694   0.99967   0.02484
           Z           -0.00299  -0.02482   0.99969
 This molecule is an asymmetric top.
 Rotational symmetry number  1.
 Warning -- assumption of classical behavior for rotation
           may cause significant error
 Rotational temperatures (Kelvin)      0.17541     0.03964     0.03366
 Rotational constants (GHZ):           3.65485     0.82594     0.70135
 Zero-point vibrational energy     279355.7 (Joules/Mol)
                                   66.76760 (Kcal/Mol)
 Warning -- explicit consideration of  12 degrees of freedom as
           vibrations may cause significant error
 Vibrational temperatures:     42.84   102.95   252.31   289.19   447.45
          (Kelvin)            472.23   504.61   631.67   785.45   830.94
                              835.85   875.34  1032.16  1032.99  1116.73
                             1129.80  1178.75  1318.00  1400.09  1475.76
                             1511.11  1598.41  1605.94  1701.48  1726.64
                             1778.15  1975.15  2008.86  2070.85  2080.24
                             2214.72  2380.73  2472.01  2570.02  4605.91
                             4608.10  4623.20  4625.22  5285.64

 Zero-point correction=                           0.106401 (Hartree/Particle)
 Thermal correction to Energy=                    0.114922
 Thermal correction to Enthalpy=                  0.115867
 Thermal correction to Gibbs Free Energy=         0.071660
 Sum of electronic and zero-point Energies=           -495.172925
 Sum of electronic and thermal Energies=              -495.164404
 Sum of electronic and thermal Enthalpies=            -495.163459
 Sum of electronic and thermal Free Energies=         -495.207666

                     E (Thermal)             CV                S
                      KCal/Mol        Cal/Mol-Kelvin    Cal/Mol-Kelvin
 Total                   72.115             31.025             93.040
 Electronic               0.000              0.000              0.000
 Translational            0.889              2.981             40.657
 Rotational               0.889              2.981             29.408
 Vibrational             70.337             25.064             22.975
 Vibration     1          0.594              1.984              5.844
 Vibration     2          0.598              1.968              4.110
 Vibration     3          0.627              1.873              2.377
 Vibration     4          0.638              1.838              2.124
 Vibration     5          0.700              1.653              1.357
 Vibration     6          0.711              1.619              1.269
 Vibration     7          0.728              1.574              1.163
 Vibration     8          0.799              1.385              0.830
 Vibration     9          0.901              1.149              0.553
 Vibration    10          0.934              1.080              0.490
 Vibration    11          0.938              1.073              0.484
 Vibration    12          0.967              1.014              0.435

 Optimization completed.
    -- Stationary point found.
 Normal termination of Gaussian 16 at Mon Jan 20 13:28:07 2025.
