 Gaussian 16, Revision A.03,
 Gaussian 16:  ES64L-G16RevA.03 25-Dec-2016

 ----------------------------------------------
 # opt=(tight,modredundant) freq b3lyp def2tzvp
 ----------------------------------------------

 ---
 opt
 ---
 Symbolic Z-matrix:
 Charge =  1 Multiplicity = 1

 SCF Done:  E(RB3LYP) =  -459.308089870     A.U. after   27 cycles
 SCF Done:  E(RB3LYP) =  -459.331119005     A.U. after   19 cycles
 SCF Done:  E(RB3LYP) =  -459.352193886     A.U. after   15 cycles
 SCF Done:  E(RB3LYP) =  -459.373196663     A.U. after   14 cycles
 SCF Done:  E(RB3LYP) =  -459.392174335     A.U. after   14 cycles
 SCF Done:  E(RB3LYP) =  -459.398124626     A.U. after   15 cycles
 SCF Done:  E(RB3LYP) =  -459.402619592     A.U. after   14 cycles
 SCF Done:  E(RB3LYP) =  -459.403865904     A.U. after   13 cycles
 SCF Done:  E(RB3LYP) =  -459.403976235     A.U. after   12 cycles
 SCF Done:  E(RB3LYP) =  -459.403985912     A.U. after    9 cycles
 SCF Done:  E(RB3LYP) =  -459.403991397     A.U. after    9 cycles
 SCF Done:  E(RB3LYP) =  -459.403992063     A.U. after    7 cycles
 SCF Done:  E(RB3LYP) =  -459.403992147     A.U. after    7 cycles
 SCF Done:  E(RB3LYP) =  -459.403992156     A.U. after    6 cycles
 SCF Done:  E(RB3LYP) =  -459.403992157     A.U. after    4 cycles
 Optimization completed.
    -- Stationary point found.
 Normal termination of Gaussian 16 at Wed Jan 22 15:27:28 2025.

 --------------------------------------------------------------------
 #N Geom=AllCheck Guess=TCheck SCRF=Check GenChk RB3LYP/def2TZVP Freq
 --------------------------------------------------------------------

 Structure from the checkpoint file:  "C6H5CH2+o.chk"
 ---
 opt
 ---
 Charge =  1 Multiplicity = 1

                         Standard orientation:
 ---------------------------------------------------------------------
 Center     Atomic      Atomic             Coordinates (Angstroms)
 Number     Number       Type             X           Y           Z
 ---------------------------------------------------------------------
      1          6           0        0.616624    0.023564   -0.000009
      2          6           0       -0.085641    1.242879   -0.000018
      3          6           0       -1.454011    1.233598   -0.000021
      4          6           0       -2.162903   -0.016072    0.000001
      5          6           0       -1.418250   -1.244345    0.000027
      6          6           0       -0.048744   -1.217065    0.000017
      7          1           0        0.479232    2.164952   -0.000023
      8          1           0       -2.015942    2.159001   -0.000042
      9          1           0       -1.953909   -2.185234    0.000053
     10          1           0        0.526896   -2.131072    0.000029
     11          6           0       -3.528404   -0.037146   -0.000002
     12          1           0       -4.107806    0.879108   -0.000016
     13          1           0       -4.079761   -0.970505    0.000009
     14          6           0        2.126449    0.109567    0.000002
     15          8           0        2.704521    1.160110    0.000055
     16          8           0        2.697502   -1.097006   -0.000048
     17          1           0        3.664380   -0.990965   -0.000041
 ---------------------------------------------------------------------

 SCF Done:  E(RB3LYP) =  -459.403992157     A.U. after    2 cycles

 The electronic state is 1-A.
 Alpha  occ. eigenvalues --  -19.33253 -19.27912 -10.47211 -10.43352 -10.41539
 Alpha  occ. eigenvalues --  -10.40572 -10.40093 -10.39919 -10.37900 -10.37613
 Alpha  occ. eigenvalues --   -1.27232  -1.18649  -1.07853  -1.00401  -0.96249
 Alpha  occ. eigenvalues --   -0.90810  -0.82384  -0.81450  -0.77616  -0.71999
 Alpha  occ. eigenvalues --   -0.69294  -0.67469  -0.64496  -0.63490  -0.63189
 Alpha  occ. eigenvalues --   -0.62352  -0.61141  -0.58637  -0.58239  -0.55800
 Alpha  occ. eigenvalues --   -0.54156  -0.49932  -0.48345  -0.46627  -0.44803
 Alpha virt. eigenvalues --   -0.33808  -0.20940  -0.20912  -0.12491  -0.10932
 Alpha virt. eigenvalues --   -0.09411  -0.08762  -0.07547  -0.04898  -0.04233
 Alpha virt. eigenvalues --   -0.04175  -0.03062  -0.02094  -0.01347   0.00298

 Mulliken charges:
               1
     1  C    0.087157
     2  C   -0.128666
     3  C   -0.069357
     4  C    0.153753
     5  C   -0.071027
     6  C   -0.140761
     7  H    0.200617
     8  H    0.180972
     9  H    0.180260
    10  H    0.193709
    11  C   -0.077904
    12  H    0.198072
    13  H    0.197334
    14  C    0.325312
    15  O   -0.235456
    16  O   -0.352160
    17  H    0.358148
 Sum of Mulliken charges =   1.00000

 Dipole moment (field-independent basis, Debye):
    X=             -6.7487    Y=             -1.5577    Z=             -0.0001  Tot=              6.9261
 Quadrupole moment (field-independent basis, Debye-Ang):
   XX=            -13.5475   YY=            -45.5532   ZZ=            -56.5713
   XY=             -6.2317   XZ=             -0.0003   YZ=             -0.0004

  Exact polarizability: 159.014   2.042  95.103   0.000  -0.000  46.978
 Approx polarizability: 279.348   9.091 169.725   0.000  -0.000  75.540

                      1                      2                      3
                      A                      A                      A
 Frequencies --     37.5402                90.5394               198.3979
 Red. masses --      6.9483                 4.4333                 5.3925
 Frc consts  --      0.0058                 0.0214                 0.1251
 IR Inten    --      1.5828                 1.5409                 1.8393

                      4                      5                      6
                      A                      A                      A
 Frequencies --    231.8343               346.3027               348.7489
 Red. masses --      4.1314                 2.3834                 6.9206
 Frc consts  --      0.1308                 0.1684                 0.4959
 IR Inten    --      0.8549                 0.0292                11.5796

                      7                      8                      9
                      A                      A                      A
 Frequencies --    356.4447               461.3845               500.6142
 Red. masses --      2.9916                 3.0033                 5.6038
 Frc consts  --      0.2239                 0.3767                 0.8274
 IR Inten    --      3.4683                25.4493                 7.1069

                     10                     11                     12
                      A                      A                      A
 Frequencies --    603.6569               608.1205               625.5460
 Red. masses --      5.3425                 1.3526                 1.0597
 Frc consts  --      1.1470                 0.2947                 0.2443
 IR Inten    --     21.9677                26.3147                 0.0002

                     13                     14                     15
                      A                      A                      A
 Frequencies --    629.2111               693.7402               733.9629
 Red. masses --      6.8595                 2.4107                 3.9802
 Frc consts  --      1.6001                 0.6836                 1.2633
 IR Inten    --      0.9681               112.3369                59.4790

                     16                     17                     18
                      A                      A                      A
 Frequencies --    803.6934               839.4837               854.9057
 Red. masses --      3.3076                 5.2279                 1.2937
 Frc consts  --      1.2587                 2.1707                 0.5571
 IR Inten    --     20.6647                10.9277                 0.0158

                     19                     20                     21
                      A                      A                      A
 Frequencies --    903.9688               990.3855              1014.2152
 Red. masses --      1.9186                 1.4742                 2.9143
 Frc consts  --      0.9237                 0.8520                 1.7662
 IR Inten    --     18.6108                 2.6483                 1.9708

                     22                     23                     24
                      A                      A                      A
 Frequencies --   1028.5880              1038.5796              1115.4155
 Red. masses --      1.3871                 1.3640                 1.3962
 Frc consts  --      0.8646                 0.8668                 1.0234
 IR Inten    --      0.1771                 2.3951                20.9000

                     25                     26                     27
                      A                      A                      A
 Frequencies --   1119.2108              1154.7310              1186.1040
 Red. masses --      4.7923                 1.3103                 1.6608
 Frc consts  --      3.5369                 1.0294                 1.3766
 IR Inten    --     99.1621                15.3617               168.6685

                     28                     29                     30
                      A                      A                      A
 Frequencies --   1217.5011              1338.0834              1375.3532
 Red. masses --      1.2466                 1.4059                 2.2307
 Frc consts  --      1.0887                 1.4831                 2.4861
 IR Inten    --     46.8085                 9.0960               208.9289

                     31                     32                     33
                      A                      A                      A
 Frequencies --   1389.7273              1399.2042              1462.3003
 Red. masses --      2.0144                 5.1113                 3.6859
 Frc consts  --      2.2922                 5.8958                 4.6437
 IR Inten    --     30.6849                 6.5501               124.3969

                     34                     35                     36
                      A                      A                      A
 Frequencies --   1508.1916              1539.6100              1596.4982
 Red. masses --      1.5100                 4.9578                 2.9480
 Frc consts  --      2.0237                 6.9241                 4.4271
 IR Inten    --      3.5427                 7.6345                 1.2962

                     37                     38                     39
                      A                      A                      A
 Frequencies --   1667.1298              1801.1920              3147.8726
 Red. masses --      5.3827                11.3710                 1.0595
 Frc consts  --      8.8143                21.7354                 6.1854
 IR Inten    --    314.3857               216.6498                 4.3907

                     40                     41                     42
                      A                      A                      A
 Frequencies --   3197.7511              3198.4079              3217.5362
 Red. masses --      1.0910                 1.0922                 1.0949
 Frc consts  --      6.5729                 6.5830                 6.6784
 IR Inten    --      0.7792                 2.5413                12.2560

                     43                     44                     45
                      A                      A                      A
 Frequencies --   3228.2842              3245.5779              3705.0924
 Red. masses --      1.0945                 1.1199                 1.0647
 Frc consts  --      6.7204                 6.9502                 8.6115
 IR Inten    --      8.0110                 4.1118               203.8298

 - Thermochemistry -
 -------------------
 Temperature   298.150 Kelvin.  Pressure   1.00000 Atm.
 Atom     1 has atomic number  6 and mass  12.00000

 Molecular mass:   135.04460 amu.
 Principal axes and moments of inertia in atomic units:
                           1         2         3
     Eigenvalues --   484.221812152.455912636.67772
           X            0.99997  -0.00720  -0.00000
           Y            0.00720   0.99997  -0.00000
           Z            0.00000   0.00000   1.00000
 This molecule is an asymmetric top.
 Rotational symmetry number  1.
 Warning -- assumption of classical behavior for rotation
           may cause significant error
 Rotational temperatures (Kelvin)      0.17887     0.04024     0.03285
 Rotational constants (GHZ):           3.72710     0.83846     0.68448
 Zero-point vibrational energy     345425.5 (Joules/Mol)
                                   82.55868 (Kcal/Mol)
 Warning -- explicit consideration of  11 degrees of freedom as
           vibrations may cause significant error
 Vibrational temperatures:     54.01   130.27   285.45   333.56   498.25
          (Kelvin)            501.77   512.84   663.83   720.27   868.53
                              874.95   900.02   905.29   998.14  1056.01
                             1156.34  1207.83  1230.02  1300.61  1424.94
                             1459.23  1479.91  1494.28  1604.83  1610.29
                             1661.40  1706.54  1751.71  1925.20  1978.83
                             1999.51  2013.14  2103.92  2169.95  2215.16
                             2297.00  2398.63  2591.51  4529.09  4600.85
                             4601.80  4629.32  4644.78  4669.66  5330.80

 Zero-point correction=                           0.131566 (Hartree/Particle)
 Thermal correction to Energy=                    0.140023
 Thermal correction to Enthalpy=                  0.140967
 Thermal correction to Gibbs Free Energy=         0.097419
 Sum of electronic and zero-point Energies=           -459.272427
 Sum of electronic and thermal Energies=              -459.263970
 Sum of electronic and thermal Enthalpies=            -459.263025
 Sum of electronic and thermal Free Energies=         -459.306574

                     E (Thermal)             CV                S
                      KCal/Mol        Cal/Mol-Kelvin    Cal/Mol-Kelvin
 Total                   87.865             32.140             91.655
 Electronic               0.000              0.000              0.000
 Translational            0.889              2.981             40.614
 Rotational               0.889              2.981             29.398
 Vibrational             86.088             26.178             21.643
 Vibration     1          0.594              1.982              5.385
 Vibration     2          0.602              1.956              3.648
 Vibration     3          0.637              1.842              2.148
 Vibration     4          0.653              1.792              1.865
 Vibration     5          0.724              1.583              1.183
 Vibration     6          0.726              1.578              1.172
 Vibration     7          0.732              1.562              1.138
 Vibration     8          0.819              1.336              0.762
 Vibration     9          0.856              1.249              0.657
 Vibration    10          0.962              1.024              0.443
 Vibration    11          0.967              1.015              0.436

                           ! Non-Optimized Parameters !
 Normal termination of Gaussian 16 at Wed Jan 22 15:54:07 2025.
