 Gaussian 16, Revision A.03,
 Gaussian 16:  ES64L-G16RevA.03 25-Dec-2016

 ----------------------------------------
 #P B3LYP/def2tzvp nosymm Density=Current
 ----------------------------------------

 ------------
 Single-Point
 ------------
 Symbolic Z-matrix:
 Charge =  0 Multiplicity = 1

                          Input orientation:
 ---------------------------------------------------------------------
 Center     Atomic      Atomic             Coordinates (Angstroms)
 Number     Number       Type             X           Y           Z
 ---------------------------------------------------------------------
      1          6           0        0.935371    0.000000    0.002383
      2          6           0        0.219919    1.203128    0.003085
      3          6           0       -1.167709    1.197740    0.003085
      4          6           0       -1.875006    0.000000    0.003271
      5          6           0       -1.167709   -1.197740    0.003085
      6          6           0        0.219919   -1.203128    0.003085
      7          7           0        2.328112    0.000000    0.060463
      8          1           0        0.758521    2.144115    0.007627
      9          1           0       -1.700175    2.141046    0.002115
     10          1           0       -2.956867    0.000000    0.002545
     11          1           0       -1.700175   -2.141046    0.002115
     12          1           0        0.758521   -2.144115    0.007627
     13          1           0        2.777337   -0.836616   -0.276620
     14          1           0        2.777337    0.836616   -0.276620
 ---------------------------------------------------------------------

 SCF Done:  E(RB3LYP) =  -287.718496583     A.U. after   12 cycles

 Alpha  occ. eigenvalues --  -14.32247 -10.21331 -10.17047 -10.17047 -10.16597
 Alpha  occ. eigenvalues --  -10.16595 -10.16022  -0.92278  -0.83773  -0.74432
 Alpha  occ. eigenvalues --   -0.72602  -0.61267  -0.59908  -0.52702  -0.51220
 Alpha  occ. eigenvalues --   -0.47842  -0.43304  -0.43000  -0.41860  -0.38705
 Alpha  occ. eigenvalues --   -0.35847  -0.34169  -0.31555  -0.25342  -0.21034
 Alpha virt. eigenvalues --   -0.00915   0.00614   0.02999   0.05554   0.06466
 Alpha virt. eigenvalues --    0.09521   0.09596   0.12502   0.13101   0.13525
 Alpha virt. eigenvalues --    0.14937   0.19033   0.21244   0.21395   0.21819

 Mulliken charges:
               1
     1  C    0.297100
     2  C   -0.221935
     3  C   -0.093578
     4  C   -0.148673
     5  C   -0.093578
     6  C   -0.221935
     7  N   -0.452217
     8  H    0.094802
     9  H    0.103157
    10  H    0.101688
    11  H    0.103157
    12  H    0.094802
    13  H    0.218606
    14  H    0.218606
 Sum of Mulliken charges =  -0.00000

 Dipole moment (field-independent basis, Debye):
    X=              1.3700    Y=             -0.0000    Z=             -0.9383  Tot=              1.6605
 Quadrupole moment (field-independent basis, Debye-Ang):
   XX=            -35.1552   YY=            -37.0618   ZZ=            -46.7194
   XY=             -0.0000   XZ=             -3.0691   YZ=              0.0000

 Normal termination of Gaussian 16 at Tue Jan 14 14:03:13 2025.
