 Gaussian 16, Revision A.03,
 Gaussian 16:  ES64L-G16RevA.03 25-Dec-2016

 ----------------------------------------
 #P B3LYP/def2tzvp nosymm Density=Current
 ----------------------------------------

 ------------
 Single-Point
 ------------
 Symbolic Z-matrix:
 Charge =  0 Multiplicity = 1

                          Input orientation:
 ---------------------------------------------------------------------
 Center     Atomic      Atomic             Coordinates (Angstroms)
 Number     Number       Type             X           Y           Z
 ---------------------------------------------------------------------
      1          6           0        0.910996    0.000000    0.004277
      2          6           0        0.193492    1.197301    0.007343
      3          6           0       -1.196622    1.200295    0.007343
      4          6           0       -1.897997    0.000000    0.006316
      5          6           0       -1.196622   -1.200295    0.007343
      6          6           0        0.193492   -1.197301    0.007343
      7          6           0        2.417262    0.000000   -0.028103
      8          1           0        0.730416    2.139190    0.012247
      9          1           0       -1.732189    2.141715    0.012007
     10          1           0       -2.980673    0.000000    0.009213
     11          1           0       -1.732189   -2.141715    0.012007
     12          1           0        0.730416   -2.139190    0.012247
     13          1           0        2.787559    0.000000   -1.057618
     14          1           0        2.826326    0.883343    0.464361
     15          1           0        2.826326   -0.883343    0.464361
 ---------------------------------------------------------------------

 SCF Done:  E(RB3LYP) =  -271.668794461     A.U. after   13 cycles

 Alpha  occ. eigenvalues --  -10.18323 -10.17344 -10.17338 -10.17120 -10.17092
 Alpha  occ. eigenvalues --  -10.17088 -10.16909  -0.85900  -0.77382  -0.74603
 Alpha  occ. eigenvalues --   -0.68742  -0.60666  -0.58590  -0.51407  -0.46321
 Alpha  occ. eigenvalues --   -0.45549  -0.42387  -0.42161  -0.41092  -0.38828
 Alpha  occ. eigenvalues --   -0.35964  -0.34458  -0.34129  -0.25619  -0.24715
 Alpha virt. eigenvalues --   -0.01295  -0.01006   0.04333   0.05783   0.07425
 Alpha virt. eigenvalues --    0.09203   0.10537   0.10594   0.12374   0.12944
 Alpha virt. eigenvalues --    0.14281   0.16048   0.16593   0.18715   0.18749

 Mulliken charges:
               1
     1  C    0.162596
     2  C   -0.179638
     3  C   -0.095981
     4  C   -0.124991
     5  C   -0.095981
     6  C   -0.179638
     7  C   -0.358620
     8  H    0.100706
     9  H    0.105806
    10  H    0.106713
    11  H    0.105806
    12  H    0.100706
    13  H    0.121609
    14  H    0.115455
    15  H    0.115455
 Sum of Mulliken charges =  -0.00000

 Dipole moment (field-independent basis, Debye):
    X=              0.3697    Y=             -0.0000    Z=             -0.0340  Tot=              0.3712
 Quadrupole moment (field-independent basis, Debye-Ang):
   XX=            -38.7747   YY=            -39.0854   ZZ=            -46.1068
   XY=             -0.0000   XZ=             -0.0775   YZ=             -0.0000

 Normal termination of Gaussian 16 at Tue Jan 14 14:01:53 2025.
