 Gaussian 16, Revision A.03,
 Gaussian 16:  ES64L-G16RevA.03 25-Dec-2016

 -------------------------
 # opt freq b3lyp def2tzvp
 -------------------------

 --------
 opt meta
 --------
 Symbolic Z-matrix:
 Charge =  0 Multiplicity = 1

 SCF Done:  E(RB3LYP) =  -571.489342636     A.U. after   14 cycles
 SCF Done:  E(RB3LYP) =  -571.494595193     A.U. after   12 cycles
 SCF Done:  E(RB3LYP) =  -571.495189438     A.U. after   11 cycles
 SCF Done:  E(RB3LYP) =  -571.495221291     A.U. after    9 cycles
 SCF Done:  E(RB3LYP) =  -571.495195096     A.U. after   10 cycles
 SCF Done:  E(RB3LYP) =  -571.495206108     A.U. after   10 cycles
 SCF Done:  E(RB3LYP) =  -571.495223289     A.U. after    9 cycles
 SCF Done:  E(RB3LYP) =  -571.495225582     A.U. after    8 cycles
 Optimization completed.
    -- Stationary point found.
 Normal termination of Gaussian 16 at Tue Jan 21 11:22:15 2025.

 --------------------------------------------------------------------
 #N Geom=AllCheck Guess=TCheck SCRF=Check GenChk RB3LYP/def2TZVP Freq
 --------------------------------------------------------------------

 Structure from the checkpoint file:  "C6H4-OH-2.chk"
 --------
 opt meta
 --------
 Charge =  0 Multiplicity = 1

                         Standard orientation:
 ---------------------------------------------------------------------
 Center     Atomic      Atomic             Coordinates (Angstroms)
 Number     Number       Type             X           Y           Z
 ---------------------------------------------------------------------
      1          6           0       -0.229019    1.270744   -0.000005
      2          6           0        1.087578    1.728907   -0.000017
      3          6           0        2.158013    0.848592   -0.000019
      4          6           0        1.928627   -0.523859   -0.000010
      5          6           0        0.625272   -0.992246    0.000000
      6          6           0       -0.467460   -0.117872    0.000003
      7          8           0       -1.270106    2.141109   -0.000003
      8          1           0        1.274911    2.797140   -0.000023
      9          1           0        3.171100    1.235802   -0.000027
     10          8           0        2.938426   -1.449185   -0.000011
     11          1           0        0.453083   -2.057708    0.000006
     12          1           0        3.791798   -1.002399   -0.000018
     13          1           0       -0.927622    3.042523   -0.000010
     14          6           0       -1.847491   -0.667817    0.000014
     15          8           0       -2.873486   -0.037179    0.000023
     16          8           0       -1.857813   -2.030762    0.000021
     17          1           0       -2.792557   -2.285917    0.000032
 ---------------------------------------------------------------------

 SCF Done:  E(RB3LYP) =  -571.495225582     A.U. after    1 cycles

 The electronic state is 1-A.
 Alpha  occ. eigenvalues --  -19.16856 -19.16599 -19.16562 -19.10956 -10.30469
 Alpha  occ. eigenvalues --  -10.25400 -10.24450 -10.20140 -10.19843 -10.19401
 Alpha  occ. eigenvalues --  -10.18766  -1.10600  -1.07604  -1.07193  -1.01435
 Alpha  occ. eigenvalues --   -0.87188  -0.78557  -0.75378  -0.67662  -0.64600
 Alpha  occ. eigenvalues --   -0.61283  -0.56450  -0.55515  -0.51042  -0.49303
 Alpha  occ. eigenvalues --   -0.48060  -0.45852  -0.45520  -0.43708  -0.42801
 Alpha  occ. eigenvalues --   -0.42106  -0.40739  -0.39943  -0.37862  -0.36760
 Alpha  occ. eigenvalues --   -0.32823  -0.32426  -0.27877  -0.27693  -0.22496
 Alpha virt. eigenvalues --   -0.05966  -0.00645   0.01650   0.01925   0.03919
 Alpha virt. eigenvalues --    0.04991   0.05514   0.10087   0.10645   0.11198
 Alpha virt. eigenvalues --    0.14309   0.15343   0.17570   0.17988   0.19049

 Mulliken charges:
               1
     1  C    0.165018
     2  C   -0.190227
     3  C   -0.183902
     4  C    0.256406
     5  C   -0.212302
     6  C    0.010323
     7  O   -0.345834
     8  H    0.096905
     9  H    0.107059
    10  O   -0.397851
    11  H    0.140920
    12  H    0.308068
    13  H    0.304282
    14  C    0.299072
    15  O   -0.283845
    16  O   -0.390008
    17  H    0.315917
 Sum of Mulliken charges =  -0.00000

 Dipole moment (field-independent basis, Debye):
    X=              3.6374    Y=              1.6673    Z=             -0.0000  Tot=              4.0013
 Quadrupole moment (field-independent basis, Debye-Ang):
   XX=            -57.9658   YY=            -53.1052   ZZ=            -64.8804
   XY=              9.5320   XZ=             -0.0001   YZ=             -0.0001

  Exact polarizability: 128.226   1.351 110.231  -0.001  -0.000  50.294
 Approx polarizability: 201.872  -6.320 185.112  -0.001  -0.000  79.885

                      1                      2                      3
                      A                      A                      A
 Frequencies --     16.1617               120.0860               170.4288
 Red. masses --     11.6395                 5.4602                 5.1808
 Frc consts  --      0.0018                 0.0464                 0.0887
 IR Inten    --      2.1654                 2.6878                 4.9833

                      4                      5                      6
                      A                      A                      A
 Frequencies --    200.5067               273.0780               323.9107
 Red. masses --      7.6729                 1.1050                 6.8849
 Frc consts  --      0.1817                 0.0485                 0.4256
 IR Inten    --      2.9908                96.4611                 0.7942

                      7                      8                      9
                      A                      A                      A
 Frequencies --    358.2066               372.6173               397.6753
 Red. masses --      1.2926                 3.5064                 7.6804
 Frc consts  --      0.0977                 0.2868                 0.7156
 IR Inten    --     72.9991                17.9084                 2.5675

                     10                     11                     12
                      A                      A                      A
 Frequencies --    404.3615               439.7469               484.5020
 Red. masses --      7.3035                 3.0486                 8.0809
 Frc consts  --      0.7036                 0.3473                 1.1176
 IR Inten    --      1.1224                 5.2774                 0.7396

                     13                     14                     15
                      A                      A                      A
 Frequencies --    548.2659               548.4232               591.0331
 Red. masses --      3.9801                 2.0814                 1.4390
 Frc consts  --      0.7049                 0.3688                 0.2962
 IR Inten    --     35.0657                 0.0012               110.7562

                     16                     17                     18
                      A                      A                      A
 Frequencies --    667.3132               706.5704               734.1054
 Red. masses --      4.9268                 4.0925                 5.5243
 Frc consts  --      1.2926                 1.2038                 1.7541
 IR Inten    --     44.8710                11.7838                20.9197

                     19                     20                     21
                      A                      A                      A
 Frequencies --    798.0292               801.6522               822.7368
 Red. masses --      2.0556                 5.9679                 3.1231
 Frc consts  --      0.7713                 2.2597                 1.2455
 IR Inten    --      1.2639                59.3290                57.6055

                     22                     23                     24
                      A                      A                      A
 Frequencies --    893.9459               932.6167               952.3856
 Red. masses --      1.3656                 1.4913                 5.7510
 Frc consts  --      0.6430                 0.7642                 3.0734
 IR Inten    --      1.6987                 7.0706                11.4160

                     25                     26                     27
                      A                      A                      A
 Frequencies --   1061.8434              1148.3576              1171.9712
 Red. masses --      3.7792                 1.9295                 1.4900
 Frc consts  --      2.5106                 1.4992                 1.2058
 IR Inten    --    130.3549                98.2799               278.8153

                     28                     29                     30
                      A                      A                      A
 Frequencies --   1192.2046              1203.0201              1278.3229
 Red. masses --      1.3315                 1.2445                 2.1511
 Frc consts  --      1.1151                 1.0612                 2.0711
 IR Inten    --     12.7150               200.6665                35.6506

                     31                     32                     33
                      A                      A                      A
 Frequencies --   1294.5441              1332.1384              1353.6752
 Red. masses --      8.6196                 1.5980                 2.3866
 Frc consts  --      8.5108                 1.6708                 2.5766
 IR Inten    --      9.3568               208.4119                97.6614

                     34                     35                     36
                      A                      A                      A
 Frequencies --   1373.7264              1485.5568              1537.9077
 Red. masses --      3.6411                 3.1688                 2.8310
 Frc consts  --      4.0483                 4.1203                 3.9450
 IR Inten    --     15.2878                20.7330               139.3557

                     37                     38                     39
                      A                      A                      A
 Frequencies --   1634.1538              1667.4199              1793.8739
 Red. masses --      6.1905                 6.2044                 9.8602
 Frc consts  --      9.7400                10.1634                18.6947
 IR Inten    --     70.5349                 3.1011               368.7678

                     40                     41                     42
                      A                      A                      A
 Frequencies --   3152.5681              3168.4474              3230.3412
 Red. masses --      1.0868                 1.0943                 1.0903
 Frc consts  --      6.3637                 6.4727                 6.7034
 IR Inten    --     15.4326                 8.9329                 2.6973

                     43                     44                     45
                      A                      A                      A
 Frequencies --   3743.6472              3790.2549              3808.2349
 Red. masses --      1.0643                 1.0658                 1.0660
 Frc consts  --      8.7883                 9.0208                 9.1088
 IR Inten    --     90.8432                59.7273                64.5756

 - Thermochemistry -
 -------------------
 Temperature   298.150 Kelvin.  Pressure   1.00000 Atm.
 Atom     1 has atomic number  6 and mass  12.00000

 Molecular mass:   154.02661 amu.
 Principal axes and moments of inertia in atomic units:
                           1         2         3
     Eigenvalues --  1023.279601964.044332987.32393
           X            0.99971   0.02393   0.00001
           Y           -0.02393   0.99971   0.00001
           Z           -0.00001  -0.00001   1.00000
 This molecule is an asymmetric top.
 Rotational symmetry number  1.
 Warning -- assumption of classical behavior for rotation
           may cause significant error
 Rotational temperatures (Kelvin)      0.08464     0.04410     0.02899
 Rotational constants (GHZ):           1.76368     0.91889     0.60413
 Zero-point vibrational energy     322875.5 (Joules/Mol)
                                   77.16910 (Kcal/Mol)
 Warning -- explicit consideration of  15 degrees of freedom as
           vibrations may cause significant error
 Vibrational temperatures:     23.25   172.78   245.21   288.48   392.90
          (Kelvin)            466.04   515.38   536.11   572.17   581.79
                              632.70   697.09   788.83   789.06   850.36
                              960.11  1016.60  1056.21  1148.19  1153.40
                             1183.73  1286.19  1341.83  1370.27  1527.76
                             1652.23  1686.21  1715.32  1730.88  1839.22
                             1862.56  1916.65  1947.64  1976.49  2137.38
                             2212.71  2351.18  2399.05  2580.98  4535.84
                             4558.69  4647.74  5386.27  5453.33  5479.20

 Zero-point correction=                           0.122977 (Hartree/Particle)
 Thermal correction to Energy=                    0.132671
 Thermal correction to Enthalpy=                  0.133615
 Thermal correction to Gibbs Free Energy=         0.086920
 Sum of electronic and zero-point Energies=           -571.372249
 Sum of electronic and thermal Energies=              -571.362555
 Sum of electronic and thermal Enthalpies=            -571.361611
 Sum of electronic and thermal Free Energies=         -571.408306

                     E (Thermal)             CV                S
                      KCal/Mol        Cal/Mol-Kelvin    Cal/Mol-Kelvin
 Total                   83.252             36.899             98.278
 Electronic               0.000              0.000              0.000
 Translational            0.889              2.981             41.006
 Rotational               0.889              2.981             30.175
 Vibrational             81.475             30.937             27.098
 Vibration     1          0.593              1.986              7.057
 Vibration     2          0.609              1.933              3.099
 Vibration     3          0.626              1.879              2.431
 Vibration     4          0.638              1.839              2.128
 Vibration     5          0.676              1.723              1.577
 Vibration     6          0.708              1.628              1.290
 Vibration     7          0.733              1.558              1.130
 Vibration     8          0.744              1.528              1.069
 Vibration     9          0.764              1.475              0.971
 Vibration    10          0.770              1.461              0.947
 Vibration    11          0.800              1.383              0.827
 Vibration    12          0.841              1.284              0.698
 Vibration    13          0.904              1.143              0.548
 Vibration    14          0.904              1.143              0.547
 Vibration    15          0.948              1.051              0.465

 Optimization completed.
    -- Stationary point found.
 Normal termination of Gaussian 16 at Tue Jan 21 11:53:18 2025.
