 Gaussian 16, Revision A.03,
 Gaussian 16:  ES64L-G16RevA.03 25-Dec-2016

 -------------------------
 # opt freq b3lyp def2tzvp
 -------------------------

 ---
 opt
 ---
 Symbolic Z-matrix:
 Charge = -1 Multiplicity = 1

 SCF Done:  E(RB3LYP) =  -495.684319949     A.U. after   20 cycles
 SCF Done:  E(RB3LYP) =  -495.705340801     A.U. after   14 cycles
 SCF Done:  E(RB3LYP) =  -495.708796413     A.U. after   13 cycles
 SCF Done:  E(RB3LYP) =  -495.708700760     A.U. after   13 cycles
 SCF Done:  E(RB3LYP) =  -495.707371987     A.U. after   13 cycles
 SCF Done:  E(RB3LYP) =  -495.706990165     A.U. after   13 cycles
 SCF Done:  E(RB3LYP) =  -495.708836771     A.U. after   10 cycles
 SCF Done:  E(RB3LYP) =  -495.709081267     A.U. after   13 cycles
 SCF Done:  E(RB3LYP) =  -495.709159705     A.U. after   12 cycles
 SCF Done:  E(RB3LYP) =  -495.709160116     A.U. after    8 cycles
 Optimization completed.
    -- Stationary point found.
 Normal termination of Gaussian 16 at Mon Jan 20 12:23:04 2025.

 --------------------------------------------------------------------
 #N Geom=AllCheck Guess=TCheck SCRF=Check GenChk RB3LYP/def2TZVP Freq
 --------------------------------------------------------------------

 Structure from the checkpoint file:  "C6H5O-.chk"
 ---
 opt
 ---
 Charge = -1 Multiplicity = 1

                         Standard orientation:
 ---------------------------------------------------------------------
 Center     Atomic      Atomic             Coordinates (Angstroms)
 Number     Number       Type             X           Y           Z
 ---------------------------------------------------------------------
      1          6           0        0.635326    0.041960    0.000004
      2          6           0       -0.075981   -1.183186   -0.000124
      3          6           0       -1.444900   -1.221674   -0.000100
      4          6           0       -2.260402   -0.021633    0.000154
      5          6           0       -1.498683    1.213877    0.000092
      6          6           0       -0.130609    1.233544    0.000074
      7          1           0        0.486970   -2.109239   -0.000275
      8          1           0       -1.972516   -2.169814   -0.000229
      9          1           0       -2.067482    2.137891    0.000110
     10          1           0        0.404673    2.176684    0.000136
     11          8           0       -3.513275   -0.049514   -0.000059
     12          6           0        2.069731    0.120324   -0.000002
     13          8           0        2.768773    1.128225   -0.000238
     14          8           0        2.711117   -1.111326    0.000259
     15          1           0        3.648545   -0.873880   -0.000023
 ---------------------------------------------------------------------

 SCF Done:  E(RB3LYP) =  -495.709160116     A.U. after    1 cycles

 The electronic state is 1-A.
 Alpha  occ. eigenvalues --  -19.02681 -18.96050 -18.90360 -10.15062 -10.06530
 Alpha  occ. eigenvalues --  -10.02987 -10.02777 -10.01861 -10.00634 -10.00611
 Alpha  occ. eigenvalues --   -0.95516  -0.86011  -0.82580  -0.69168  -0.59509
 Alpha  occ. eigenvalues --   -0.58751  -0.48734  -0.45170  -0.42096  -0.37249
 Alpha  occ. eigenvalues --   -0.34517  -0.30290  -0.30239  -0.29873  -0.28532
 Alpha  occ. eigenvalues --   -0.26875  -0.25103  -0.23134  -0.21792  -0.19347
 Alpha  occ. eigenvalues --   -0.18478  -0.16197  -0.13822  -0.10996  -0.06900
 Alpha  occ. eigenvalues --   -0.04204
 Alpha virt. eigenvalues --    0.11546   0.14445   0.15393   0.19788   0.21131
 Alpha virt. eigenvalues --    0.22186   0.23508   0.25058   0.25984   0.29113
 Alpha virt. eigenvalues --    0.30507   0.31447   0.32543   0.33879   0.35005

 Mulliken charges:
               1
     1  C    0.013346
     2  C   -0.175039
     3  C   -0.197374
     4  C    0.226351
     5  C   -0.185032
     6  C   -0.171321
     7  H    0.077571
     8  H    0.036585
     9  H    0.037993
    10  H    0.082859
    11  O   -0.485818
    12  C    0.310062
    13  O   -0.421956
    14  O   -0.425435
    15  H    0.277209
 Sum of Mulliken charges =  -1.00000

 Dipole moment (field-independent basis, Debye):
    X=              4.9312    Y=             -1.2587    Z=              0.0001  Tot=              5.0893
 Quadrupole moment (field-independent basis, Debye-Ang):
   XX=            -99.3227   YY=            -64.5502   ZZ=            -62.0192
   XY=             -6.1977   XZ=             -0.0008   YZ=              0.0019

  Exact polarizability: 167.551   2.630  98.445  -0.002   0.001  52.471
 Approx polarizability: 301.352  12.551 158.040  -0.003   0.001  83.740

                      1                      2                      3
                      A                      A                      A
 Frequencies --     94.9445                98.3352               194.5005
 Red. masses --      6.8894                 8.8329                 7.2464
 Frc consts  --      0.0366                 0.0503                 0.1615
 IR Inten    --      0.0065                 2.9202                 1.8399

                      4                      5                      6
                      A                      A                      A
 Frequencies --    247.5879               354.8313               428.7950
 Red. masses --      5.7388                10.3169                 3.2147
 Frc consts  --      0.2073                 0.7653                 0.3482
 IR Inten    --      4.1057                 2.0772                 2.6600

                      7                      8                      9
                      A                      A                      A
 Frequencies --    439.0245               482.4162               515.2098
 Red. masses --      7.9735                 1.9419                 5.4893
 Frc consts  --      0.9055                 0.2663                 0.8585
 IR Inten    --     10.3948                44.8045                 9.2408

                     10                     11                     12
                      A                      A                      A
 Frequencies --    525.2728               595.9033               634.2875
 Red. masses --      1.2549                 5.8232                 7.3324
 Frc consts  --      0.2040                 1.2183                 1.7381
 IR Inten    --     36.0929                80.0951                 2.6318

                     13                     14                     15
                      A                      A                      A
 Frequencies --    718.9115               732.3655               780.8736
 Red. masses --      2.9075                 4.6379                 6.5350
 Frc consts  --      0.8854                 1.4656                 2.3478
 IR Inten    --     25.6846                 6.0273                21.8889

                     16                     17                     18
                      A                      A                      A
 Frequencies --    800.4077               820.1559               864.7647
 Red. masses --      1.2703                 5.7032                 2.5100
 Frc consts  --      0.4795                 2.2603                 1.1059
 IR Inten    --      0.8975                 6.2394                46.0968

                     19                     20                     21
                      A                      A                      A
 Frequencies --    954.0449               973.1337               992.6347
 Red. masses --      1.2803                 1.2653                 3.0533
 Frc consts  --      0.6866                 0.7060                 1.7725
 IR Inten    --      0.0216                 0.2964                 2.4244

                     22                     23                     24
                      A                      A                      A
 Frequencies --   1039.9779              1108.9405              1164.3525
 Red. masses --      4.7303                 1.4049                 1.1846
 Frc consts  --      3.0143                 1.0179                 0.9462
 IR Inten    --    313.8099                 5.2576               315.6108

                     25                     26                     27
                      A                      A                      A
 Frequencies --   1216.3189              1260.9955              1323.7334
 Red. masses --      1.5648                 2.3637                 1.8142
 Frc consts  --      1.3640                 2.2145                 1.8730
 IR Inten    --    172.1912                 0.9858                 9.7833

                     28                     29                     30
                      A                      A                      A
 Frequencies --   1348.1887              1437.9097              1491.0229
 Red. masses --      2.8018                 2.7377                 5.0596
 Frc consts  --      3.0004                 3.3350                 6.6272
 IR Inten    --    117.9842               100.7628                45.8266

                     31                     32                     33
                      A                      A                      A
 Frequencies --   1520.3296              1590.9378              1635.0519
 Red. masses --      5.4852                 6.0681                 6.0847
 Frc consts  --      7.4699                 9.0491                 9.5842
 IR Inten    --     41.5603               153.0677               997.0386

                     34                     35                     36
                      A                      A                      A
 Frequencies --   1715.3305              3141.7659              3142.7307
 Red. masses --      7.5685                 1.0859                 1.0856
 Frc consts  --     13.1206                 6.3153                 6.3174
 IR Inten    --    476.5474                15.4071                28.1933

                     37                     38                     39
                      A                      A                      A
 Frequencies --   3164.6379              3170.1274              3756.2882
 Red. masses --      1.0928                 1.0926                 1.0640
 Frc consts  --      6.4483                 6.4695                 8.8452
 IR Inten    --     53.4924                13.4900                47.9063

 - Thermochemistry -
 -------------------
 Temperature   298.150 Kelvin.  Pressure   1.00000 Atm.
 Atom     1 has atomic number  6 and mass  12.00000

 Molecular mass:   137.02387 amu.
 Principal axes and moments of inertia in atomic units:
                           1         2         3
     Eigenvalues --   465.506902248.068812713.57570
           X            0.99998  -0.00691   0.00000
           Y            0.00691   0.99998   0.00001
           Z           -0.00000  -0.00001   1.00000
 This molecule is an asymmetric top.
 Rotational symmetry number  1.
 Warning -- assumption of classical behavior for rotation
           may cause significant error
 Rotational temperatures (Kelvin)      0.18606     0.03853     0.03192
 Rotational constants (GHZ):           3.87694     0.80280     0.66508
 Zero-point vibrational energy     277994.4 (Joules/Mol)
                                   66.44227 (Kcal/Mol)
 Warning -- explicit consideration of  11 degrees of freedom as
           vibrations may cause significant error
 Vibrational temperatures:    136.60   141.48   279.84   356.22   510.52
          (Kelvin)            616.94   631.66   694.09   741.27   755.75
                              857.37   912.60  1034.35  1053.71  1123.50
                             1151.61  1180.02  1244.20  1372.66  1400.12
                             1428.18  1496.30  1595.52  1675.24  1750.01
                             1814.29  1904.56  1939.74  2068.83  2145.25
                             2187.42  2289.00  2352.48  2467.98  4520.30
                             4521.69  4553.21  4561.11  5404.46

 Zero-point correction=                           0.105882 (Hartree/Particle)
 Thermal correction to Energy=                    0.113901
 Thermal correction to Enthalpy=                  0.114846
 Thermal correction to Gibbs Free Energy=         0.072708
 Sum of electronic and zero-point Energies=           -495.603278
 Sum of electronic and thermal Energies=              -495.595259
 Sum of electronic and thermal Enthalpies=            -495.594315
 Sum of electronic and thermal Free Energies=         -495.636452

                     E (Thermal)             CV                S
                      KCal/Mol        Cal/Mol-Kelvin    Cal/Mol-Kelvin
 Total                   71.474             30.662             88.686
 Electronic               0.000              0.000              0.000
 Translational            0.889              2.981             40.657
 Rotational               0.889              2.981             29.431
 Vibrational             69.697             24.700             18.599
 Vibration     1          0.603              1.953              3.556
 Vibration     2          0.604              1.950              3.487
 Vibration     3          0.635              1.848              2.185
 Vibration     4          0.661              1.767              1.748
 Vibration     5          0.731              1.565              1.145
 Vibration     6          0.790              1.408              0.863
 Vibration     7          0.799              1.385              0.830
 Vibration     8          0.839              1.289              0.704
 Vibration     9          0.870              1.216              0.621
 Vibration    10          0.880              1.194              0.598
 Vibration    11          0.954              1.041              0.457

 Optimization completed.
    -- Stationary point found.
 Normal termination of Gaussian 16 at Mon Jan 20 12:44:28 2025.
