 Gaussian 16, Revision A.03,
 Gaussian 16:  ES64L-G16RevA.03 25-Dec-2016

 -------------------------
 # opt freq b3lyp def2tzvp
 -------------------------

 --------
 opt meta
 --------
 Symbolic Z-matrix:
 Charge =  0 Multiplicity = 1

 SCF Done:  E(RB3LYP) =  -530.436230737     A.U. after   15 cycles
 SCF Done:  E(RB3LYP) =  -530.468460048     A.U. after   14 cycles
 SCF Done:  E(RB3LYP) =  -530.477415079     A.U. after   14 cycles
 SCF Done:  E(RB3LYP) =  -530.478089681     A.U. after   13 cycles
 SCF Done:  E(RB3LYP) =  -530.475386358     A.U. after   14 cycles
 SCF Done:  E(RB3LYP) =  -530.478805801     A.U. after   14 cycles
 SCF Done:  E(RB3LYP) =  -530.479702773     A.U. after   16 cycles
 SCF Done:  E(RB3LYP) =  -530.480426230     A.U. after   13 cycles
 SCF Done:  E(RB3LYP) =  -530.480548767     A.U. after   13 cycles
 SCF Done:  E(RB3LYP) =  -530.480728820     A.U. after   13 cycles
 SCF Done:  E(RB3LYP) =  -530.480786277     A.U. after   12 cycles
 SCF Done:  E(RB3LYP) =  -530.480800004     A.U. after   13 cycles
 SCF Done:  E(RB3LYP) =  -530.480812872     A.U. after   12 cycles
 SCF Done:  E(RB3LYP) =  -530.480813497     A.U. after    8 cycles
 SCF Done:  E(RB3LYP) =  -530.480813569     A.U. after    8 cycles
 Optimization completed.
    -- Stationary point found.
 Normal termination of Gaussian 16 at Mon Jan 20 16:35:03 2025.

 --------------------------------------------------------------------
 #N Geom=AllCheck Guess=TCheck SCRF=Check GenChk RB3LYP/def2TZVP Freq
 --------------------------------------------------------------------

 Structure from the checkpoint file:  "C6H4-NH-2.chk"
 --------
 opt meta
 --------
 Charge =  0 Multiplicity = 1

                         Standard orientation:
 ---------------------------------------------------------------------
 Center     Atomic      Atomic             Coordinates (Angstroms)
 Number     Number       Type             X           Y           Z
 ---------------------------------------------------------------------
      1          6           0        1.932639   -0.737255    0.058033
      2          6           0        0.506062   -1.066804    0.044176
      3          6           0       -0.447664   -0.123276    0.002719
      4          6           0       -0.096772    1.306490   -0.102994
      5          6           0        1.334412    1.631374   -0.040680
      6          6           0        2.279508    0.687059    0.028238
      7          7           0        2.779423   -1.700789    0.099785
      8          1           0        0.259901   -2.119545    0.088473
      9          7           0       -1.023150    2.169451   -0.293414
     10          1           0        1.597654    2.682827   -0.077703
     11          1           0        3.331610    0.948455    0.055910
     12          1           0       -0.636784    3.111384   -0.370383
     13          1           0        3.737777   -1.346845    0.110060
     14          6           0       -1.891089   -0.504042    0.130165
     15          8           0       -2.629456   -0.097744    0.983624
     16          8           0       -2.258073   -1.412424   -0.801542
     17          1           0       -3.186399   -1.636841   -0.625550
 ---------------------------------------------------------------------

 SCF Done:  E(RB3LYP) =  -530.480813569     A.U. after    1 cycles

 The electronic state is 1-A.
 Alpha  occ. eigenvalues --  -19.18556 -19.12634 -14.32715 -14.32537 -10.31958
 Alpha  occ. eigenvalues --  -10.25219 -10.24956 -10.22203 -10.21794 -10.21656
 Alpha  occ. eigenvalues --  -10.21227  -1.12162  -1.03291  -0.94834  -0.93292
 Alpha  occ. eigenvalues --   -0.84570  -0.80632  -0.71148  -0.67494  -0.63915
 Alpha  occ. eigenvalues --   -0.60234  -0.55640  -0.52698  -0.50567  -0.49523
 Alpha  occ. eigenvalues --   -0.48705  -0.46819  -0.45715  -0.43622  -0.42518
 Alpha  occ. eigenvalues --   -0.41597  -0.39249  -0.37375  -0.33858  -0.31371
 Alpha  occ. eigenvalues --   -0.29997  -0.29602  -0.28363  -0.27480
 Alpha virt. eigenvalues --   -0.11601  -0.04786  -0.00612   0.02029   0.02589
 Alpha virt. eigenvalues --    0.03027   0.03882   0.06717   0.08394   0.09918
 Alpha virt. eigenvalues --    0.11398   0.11909   0.14037   0.16141   0.16754

 Mulliken charges:
               1
     1  C    0.109857
     2  C   -0.161959
     3  C    0.125012
     4  C    0.056582
     5  C   -0.157168
     6  C   -0.166359
     7  N   -0.254338
     8  H    0.133662
     9  N   -0.249989
    10  H    0.117470
    11  H    0.121903
    12  H    0.193625
    13  H    0.195586
    14  C    0.252593
    15  O   -0.269008
    16  O   -0.369277
    17  H    0.321809
 Sum of Mulliken charges =  -0.00000

 Dipole moment (field-independent basis, Debye):
    X=              2.8139    Y=              1.3677    Z=             -0.9766  Tot=              3.2776
 Quadrupole moment (field-independent basis, Debye-Ang):
   XX=            -58.0350   YY=            -59.9434   ZZ=            -67.4686
   XY=             13.1845   XZ=              4.0962   YZ=             -0.8136

  Exact polarizability: 140.045 -28.749 121.705   2.026  -1.245  59.265
 Approx polarizability: 241.758-100.390 228.440   3.785  -2.609  99.200

                      1                      2                      3
                      A                      A                      A
 Frequencies --     24.2215                87.0927               128.6295
 Red. masses --      8.6181                 5.7957                 5.1854
 Frc consts  --      0.0030                 0.0259                 0.0505
 IR Inten    --      4.5285                 5.5445                 0.9167

                      4                      5                      6
                      A                      A                      A
 Frequencies --    172.1593               258.9230               306.6779
 Red. masses --      7.0403                 5.1847                 6.7810
 Frc consts  --      0.1229                 0.2048                 0.3758
 IR Inten    --      2.7136                 1.2494                 0.8123

                      7                      8                      9
                      A                      A                      A
 Frequencies --    341.4378               410.8249               464.5022
 Red. masses --      4.3200                 4.8104                 3.5418
 Frc consts  --      0.2967                 0.4783                 0.4502
 IR Inten    --      0.9761                16.6565                 6.0616

                     10                     11                     12
                      A                      A                      A
 Frequencies --    477.0798               502.7983               580.8547
 Red. masses --      5.9955                 3.3224                 2.2438
 Frc consts  --      0.8040                 0.4949                 0.4460
 IR Inten    --      2.2804                 8.4036                41.3828

                     13                     14                     15
                      A                      A                      A
 Frequencies --    633.9320               640.6455               706.0835
 Red. masses --      1.6349                 4.3544                 4.4783
 Frc consts  --      0.3871                 1.0530                 1.3155
 IR Inten    --     52.7207                36.6122                20.8000

                     16                     17                     18
                      A                      A                      A
 Frequencies --    744.4420               761.9203               821.4654
 Red. masses --      3.6032                 2.0533                 3.0638
 Frc consts  --      1.1765                 0.7023                 1.2181
 IR Inten    --     35.0152                 6.4312                 2.5135

                     19                     20                     21
                      A                      A                      A
 Frequencies --    837.9657               889.2395               902.1554
 Red. masses --      5.7400                 3.7247                 1.2237
 Frc consts  --      2.3747                 1.7353                 0.5868
 IR Inten    --      5.8579                 2.4486                 2.7134

                     22                     23                     24
                      A                      A                      A
 Frequencies --    929.5870               967.0945               995.6654
 Red. masses --      1.4108                 1.4149                 1.3212
 Frc consts  --      0.7183                 0.7797                 0.7717
 IR Inten    --    146.0989                 2.9318                 0.2971

                     25                     26                     27
                      A                      A                      A
 Frequencies --   1037.1817              1104.3273              1148.3632
 Red. masses --      4.0141                 2.2173                 1.6283
 Frc consts  --      2.5442                 1.5932                 1.2652
 IR Inten    --     60.9295                18.6392               172.6030

                     28                     29                     30
                      A                      A                      A
 Frequencies --   1191.4151              1197.1158              1302.5370
 Red. masses --      1.6324                 1.1019                 1.3605
 Frc consts  --      1.3652                 0.9304                 1.3600
 IR Inten    --    179.0713                27.5618                54.4083

                     31                     32                     33
                      A                      A                      A
 Frequencies --   1352.9551              1394.9735              1419.0568
 Red. masses --      2.2670                 1.6914                 2.3065
 Frc consts  --      2.4450                 1.9392                 2.7365
 IR Inten    --     52.4043                18.2939                29.7014

                     34                     35                     36
                      A                      A                      A
 Frequencies --   1456.1638              1609.7299              1644.5337
 Red. masses --      3.7467                 9.8704                 8.1947
 Frc consts  --      4.6808                15.0692                13.0578
 IR Inten    --     38.5512                 4.4775                 5.0167

                     37                     38                     39
                      A                      A                      A
 Frequencies --   1656.2420              1696.0693              1817.3776
 Red. masses --      8.4449                 6.9549                10.4561
 Frc consts  --     13.6487                11.7877                20.3474
 IR Inten    --     85.7493                 7.3578               298.9138

                     40                     41                     42
                      A                      A                      A
 Frequencies --   3155.8161              3174.3388              3200.4020
 Red. masses --      1.0862                 1.0973                 1.0919
 Frc consts  --      6.3734                 6.5146                 6.5891
 IR Inten    --      3.1504                 8.3684                 0.1824

                     43                     44                     45
                      A                      A                      A
 Frequencies --   3424.2016              3432.8837              3713.8770
 Red. masses --      1.0741                 1.0743                 1.0638
 Frc consts  --      7.4199                 7.4594                 8.6449
 IR Inten    --      4.5299                 4.3134                74.7140

 - Thermochemistry -
 -------------------
 Temperature   298.150 Kelvin.  Pressure   1.00000 Atm.
 Atom     1 has atomic number  6 and mass  12.00000

 Molecular mass:   150.04293 amu.
 Principal axes and moments of inertia in atomic units:
                           1         2         3
     Eigenvalues --   981.665491994.721772775.96263
           X            0.99982   0.01818   0.00529
           Y           -0.01816   0.99983  -0.00269
           Z           -0.00534   0.00259   0.99998
 This molecule is an asymmetric top.
 Rotational symmetry number  1.
 Warning -- assumption of classical behavior for rotation
           may cause significant error
 Rotational temperatures (Kelvin)      0.08823     0.04342     0.03120
 Rotational constants (GHZ):           1.83845     0.90476     0.65013
 Zero-point vibrational energy     327268.1 (Joules/Mol)
                                   78.21896 (Kcal/Mol)
 Warning -- explicit consideration of  12 degrees of freedom as
           vibrations may cause significant error
 Vibrational temperatures:     34.85   125.31   185.07   247.70   372.53
          (Kelvin)            441.24   491.25   591.09   668.32   686.41
                              723.41   835.72   912.09   921.75  1015.90
                             1071.09  1096.23  1181.91  1205.65  1279.42
                             1298.00  1337.47  1391.43  1432.54  1492.27
                             1588.88  1652.24  1714.18  1722.38  1874.06
                             1946.60  2007.06  2041.71  2095.09  2316.04
                             2366.12  2382.96  2440.27  2614.80  4540.52
                             4567.17  4604.66  4926.66  4939.15  5343.44

 Zero-point correction=                           0.124650 (Hartree/Particle)
 Thermal correction to Energy=                    0.133980
 Thermal correction to Enthalpy=                  0.134924
 Thermal correction to Gibbs Free Energy=         0.088787
 Sum of electronic and zero-point Energies=           -530.356164
 Sum of electronic and thermal Energies=              -530.346834
 Sum of electronic and thermal Enthalpies=            -530.345889
 Sum of electronic and thermal Free Energies=         -530.392027

                     E (Thermal)             CV                S
                      KCal/Mol        Cal/Mol-Kelvin    Cal/Mol-Kelvin
 Total                   84.074             34.801             97.104
 Electronic               0.000              0.000              0.000
 Translational            0.889              2.981             40.927
 Rotational               0.889              2.981             30.076
 Vibrational             82.296             28.840             26.101
 Vibration     1          0.593              1.985              6.254
 Vibration     2          0.601              1.958              3.724
 Vibration     3          0.611              1.925              2.966
 Vibration     4          0.626              1.877              2.412
 Vibration     5          0.668              1.748              1.669
 Vibration     6          0.697              1.661              1.380
 Vibration     7          0.721              1.593              1.205
 Vibration     8          0.775              1.447              0.924
 Vibration     9          0.822              1.329              0.753
 Vibration    10          0.834              1.301              0.718
 Vibration    11          0.858              1.244              0.651
 Vibration    12          0.938              1.073              0.484

 Optimization completed.
    -- Stationary point found.
 Normal termination of Gaussian 16 at Mon Jan 20 17:08:03 2025.
