 Gaussian 16, Revision A.03,
 Gaussian 16:  ES64L-G16RevA.03 25-Dec-2016

 ----------------------------------------
 #P B3LYP/def2tzvp nosymm Density=Current
 ----------------------------------------

 ------------
 Single-Point
 ------------
 Symbolic Z-matrix:
 Charge =  0 Multiplicity = 1

                          Input orientation:
 ---------------------------------------------------------------------
 Center     Atomic      Atomic             Coordinates (Angstroms)
 Number     Number       Type             X           Y           Z
 ---------------------------------------------------------------------
      1          6           0        1.417340    0.002481   -0.010913
      2          6           0        0.693898   -1.191842   -0.006209
      3          6           0       -0.693898   -1.191842    0.006209
      4          6           0       -1.417340    0.002481    0.010913
      5          6           0       -0.695480    1.194108    0.006161
      6          6           0        0.695480    1.194108   -0.006161
      7          1           0        1.225450   -2.137096   -0.011084
      8          1           0       -1.225450   -2.137096    0.011084
      9          1           0       -1.226619    2.139324    0.010860
     10          1           0        1.226619    2.139324   -0.010860
     11          6           0        2.923736   -0.002343    0.006161
     12          6           0       -2.923736   -0.002343   -0.006161
     13          1           0        3.327264   -0.782694   -0.641891
     14          1           0        3.327848    0.954699   -0.325860
     15          1           0        3.306998   -0.188649    1.013771
     16          1           0       -3.327264   -0.782694    0.641891
     17          1           0       -3.327848    0.954699    0.325860
     18          1           0       -3.306998   -0.188649   -1.013771
 ---------------------------------------------------------------------

 SCF Done:  E(RB3LYP) =  -311.000029049     A.U. after   12 cycles

 Alpha  occ. eigenvalues --  -10.17832 -10.17829 -10.16861 -10.16837 -10.16803
 Alpha  occ. eigenvalues --  -10.16781 -10.16672 -10.16672  -0.85919  -0.78649
 Alpha  occ. eigenvalues --   -0.74283  -0.71993  -0.65602  -0.60695  -0.57400
 Alpha  occ. eigenvalues --   -0.49317  -0.47188  -0.45069  -0.42488  -0.41677
 Alpha  occ. eigenvalues --   -0.41638  -0.40101  -0.39766  -0.37410  -0.34670
 Alpha  occ. eigenvalues --   -0.34101  -0.33512  -0.25331  -0.23643
 Alpha virt. eigenvalues --   -0.01169  -0.00600   0.04485   0.04918   0.06971
 Alpha virt. eigenvalues --    0.07431   0.10134   0.10189   0.11054   0.12696
 Alpha virt. eigenvalues --    0.12919   0.13474   0.14255   0.15099   0.16826

 Mulliken charges:
               1
     1  C    0.147749
     2  C   -0.163306
     3  C   -0.163306
     4  C    0.147749
     5  C   -0.167134
     6  C   -0.167134
     7  H    0.097891
     8  H    0.097891
     9  H    0.097113
    10  H    0.097113
    11  C   -0.361112
    12  C   -0.361112
    13  H    0.115953
    14  H    0.112902
    15  H    0.119943
    16  H    0.115953
    17  H    0.112902
    18  H    0.119943
 Sum of Mulliken charges =  -0.00000

 Dipole moment (field-independent basis, Debye):
    X=             -0.0000    Y=             -0.0423    Z=              0.0000  Tot=              0.0423
 Quadrupole moment (field-independent basis, Debye-Ang):
   XX=            -44.9077   YY=            -46.0321   ZZ=            -52.3644
   XY=              0.0000   XZ=              0.0787   YZ=             -0.0000

 Normal termination of Gaussian 16 at Tue Jan 14 13:35:28 2025.
