 Gaussian 16, Revision A.03,
 Gaussian 16:  ES64L-G16RevA.03 25-Dec-2016

 ----------------------------------------
 #P B3LYP/def2tzvp nosymm Density=Current
 ----------------------------------------

 ------------
 Single-Point
 ------------
 Symbolic Z-matrix:
 Charge = -1 Multiplicity = 1

                          Input orientation:
 ---------------------------------------------------------------------
 Center     Atomic      Atomic             Coordinates (Angstroms)
 Number     Number       Type             X           Y           Z
 ---------------------------------------------------------------------
      1          6           0        0.000000   -1.869617    0.000000
      2          6           0        1.196338   -1.157448    0.000000
      3          6           0        1.187286    0.236430    0.000000
      4          6           0        0.000000    1.011928    0.000000
      5          6           0       -1.187286    0.236430    0.000000
      6          6           0       -1.196338   -1.157448    0.000000
      7          1           0        0.000000   -2.955014    0.000000
      8          1           0        2.142146   -1.693820    0.000000
      9          1           0        2.121947    0.786942    0.000000
     10          1           0       -2.121947    0.786942    0.000000
     11          1           0       -2.142146   -1.693820    0.000000
     12          6           0        0.000000    2.483490    0.000000
     13          1           0        0.000000    3.033092    0.932550
     14          1           0        0.000000    3.033092   -0.932550
 ---------------------------------------------------------------------

 SCF Done:  E(RB3LYP) =  -270.992057558     A.U. after   19 cycles

 Alpha  occ. eigenvalues --  -10.02151 -10.01954 -10.01945 -10.00542  -9.99948
 Alpha  occ. eigenvalues --   -9.99944  -9.88423  -0.68968  -0.58524  -0.58185
 Alpha  occ. eigenvalues --   -0.46131  -0.43743  -0.39280  -0.34519  -0.28866
 Alpha  occ. eigenvalues --   -0.28355  -0.25921  -0.23243  -0.21593  -0.17277
 Alpha  occ. eigenvalues --   -0.17220  -0.16080  -0.09665  -0.07434   0.07657
 Alpha virt. eigenvalues --    0.14807   0.14967   0.17455   0.20233   0.21910
 Alpha virt. eigenvalues --    0.24442   0.26079   0.26100   0.28342   0.30130
 Alpha virt. eigenvalues --    0.32643   0.33286   0.33862   0.34844   0.35823

 Mulliken charges:
               1
     1  C   -0.110244
     2  C   -0.095360
     3  C   -0.189469
     4  C    0.484329
     5  C   -0.189469
     6  C   -0.095360
     7  H    0.045051
     8  H    0.032690
     9  H    0.002067
    10  H    0.002067
    11  H    0.032690
    12  C   -0.960165
    13  H    0.020587
    14  H    0.020587
 Sum of Mulliken charges =  -1.00000

 Dipole moment (field-independent basis, Debye):
    X=              0.0000    Y=             -7.3853    Z=              0.0000  Tot=              7.3853
 Quadrupole moment (field-independent basis, Debye-Ang):
   XX=            -50.7546   YY=            -72.6618   ZZ=            -49.2411
   XY=              0.0000   XZ=             -0.0000   YZ=              0.0000

 Normal termination of Gaussian 16 at Tue Jan 14 14:00:24 2025.
