 Gaussian 16, Revision A.03,
 Gaussian 16:  ES64L-G16RevA.03 25-Dec-2016

 ----------------------------------------
 #P B3LYP/def2tzvp nosymm Density=Current
 ----------------------------------------

 ------------
 Single-Point
 ------------
 Symbolic Z-matrix:
 Charge =  0 Multiplicity = 1

                          Input orientation:
 ---------------------------------------------------------------------
 Center     Atomic      Atomic             Coordinates (Angstroms)
 Number     Number       Type             X           Y           Z
 ---------------------------------------------------------------------
      1          6           0        1.207202   -0.700658    0.000000
      2          6           0        1.207202    0.689471    0.000000
      3          6           0        0.005096    1.385329    0.000000
      4          6           0       -1.207202    0.700658    0.000000
      5          6           0       -1.207202   -0.689471    0.000000
      6          6           0       -0.005096   -1.385329    0.000000
      7          8           0        2.421583   -1.338130    0.000000
      8          1           0        2.151547    1.217361    0.000000
      9          1           0        0.015386    2.470050    0.000000
     10          8           0       -2.421583    1.338130    0.000000
     11          1           0       -2.151547   -1.217361    0.000000
     12          1           0       -0.015386   -2.470050    0.000000
     13          1           0       -2.285220    2.291683    0.000000
     14          1           0        2.285220   -2.291683    0.000000
 ---------------------------------------------------------------------

 SCF Done:  E(RB3LYP) =  -382.845492074     A.U. after   12 cycles

 Alpha  occ. eigenvalues --  -19.15648 -19.15647 -10.23287 -10.23286 -10.18052
 Alpha  occ. eigenvalues --  -10.18050 -10.17628 -10.17626  -1.06220  -1.06115
 Alpha  occ. eigenvalues --   -0.85586  -0.75890  -0.73849  -0.64433  -0.60891
 Alpha  occ. eigenvalues --   -0.56029  -0.55103  -0.48429  -0.45037  -0.44264
 Alpha  occ. eigenvalues --   -0.43223  -0.42377  -0.39665  -0.39086  -0.37702
 Alpha  occ. eigenvalues --   -0.34645  -0.31745  -0.26470  -0.21261
 Alpha virt. eigenvalues --   -0.02074   0.01269   0.02112   0.03066   0.05656
 Alpha virt. eigenvalues --    0.07852   0.11339   0.11423   0.13431   0.14731
 Alpha virt. eigenvalues --    0.16320   0.17854   0.20586   0.22343   0.22883

 Mulliken charges:
               1
     1  C    0.247507
     2  C   -0.190913
     3  C   -0.171736
     4  C    0.247507
     5  C   -0.190913
     6  C   -0.171736
     7  O   -0.406386
     8  H    0.114903
     9  H    0.099741
    10  O   -0.406386
    11  H    0.114903
    12  H    0.099741
    13  H    0.306884
    14  H    0.306884
 Sum of Mulliken charges =  -0.00000

 Dipole moment (field-independent basis, Debye):
    X=              0.0000    Y=             -0.0000    Z=             -0.0000  Tot=              0.0000
 Quadrupole moment (field-independent basis, Debye-Ang):
   XX=            -51.5023   YY=            -32.0513   ZZ=            -50.1800
   XY=             -2.9489   XZ=             -0.0000   YZ=              0.0000

 Normal termination of Gaussian 16 at Tue Jan 14 14:13:22 2025.
