 Gaussian 16, Revision A.03,
 Gaussian 16:  ES64L-G16RevA.03 25-Dec-2016

 ----------------------------------------
 #P B3LYP/def2tzvp nosymm Density=Current
 ----------------------------------------

 ------------
 Single-Point
 ------------
 Symbolic Z-matrix:
 Charge =  0 Multiplicity = 1

                          Input orientation:
 ---------------------------------------------------------------------
 Center     Atomic      Atomic             Coordinates (Angstroms)
 Number     Number       Type             X           Y           Z
 ---------------------------------------------------------------------
      1          6           0        1.416184    0.000000    0.000690
      2          6           0        0.693919    1.194979   -0.000690
      3          6           0       -0.693919    1.194979    0.000690
      4          6           0       -1.416184    0.000000   -0.000690
      5          6           0       -0.693919   -1.194979    0.000690
      6          6           0        0.693919   -1.194979   -0.000690
      7          1           0        3.251860    0.829864    0.310546
      8          1           0        3.251860   -0.829864    0.310546
      9          1           0        1.224191    2.140787   -0.007521
     10          1           0       -1.224191    2.140787    0.007521
     11          7           0       -2.820225    0.000000    0.067720
     12          1           0       -1.224191   -2.140787    0.007521
     13          1           0        1.224191   -2.140787   -0.007521
     14          7           0        2.820225    0.000000   -0.067720
     15          1           0       -3.251860    0.829864   -0.310546
     16          1           0       -3.251860   -0.829864   -0.310546
 ---------------------------------------------------------------------

 SCF Done:  E(RB3LYP) =  -343.095321163     A.U. after   12 cycles

 Alpha  occ. eigenvalues --  -14.31217 -14.31217 -10.19948 -10.19947 -10.16368
 Alpha  occ. eigenvalues --  -10.16364 -10.16308 -10.16308  -0.91553  -0.90592
 Alpha  occ. eigenvalues --   -0.81972  -0.74141  -0.70777  -0.61690  -0.59164
 Alpha  occ. eigenvalues --   -0.52233  -0.52214  -0.49103  -0.47916  -0.43364
 Alpha  occ. eigenvalues --   -0.41846  -0.40987  -0.38722  -0.38545  -0.33882
 Alpha  occ. eigenvalues --   -0.33847  -0.27022  -0.24992  -0.18214
 Alpha virt. eigenvalues --   -0.00779   0.01948   0.03562   0.03774   0.06374
 Alpha virt. eigenvalues --    0.06702   0.08389   0.11870   0.11895   0.13134
 Alpha virt. eigenvalues --    0.14746   0.15717   0.17593   0.18871   0.21626

 Mulliken charges:
               1
     1  C    0.264296
     2  C   -0.207430
     3  C   -0.207430
     4  C    0.264296
     5  C   -0.207430
     6  C   -0.207430
     7  H    0.213815
     8  H    0.213815
     9  H    0.092234
    10  H    0.092234
    11  N   -0.461534
    12  H    0.092234
    13  H    0.092234
    14  N   -0.461534
    15  H    0.213815
    16  H    0.213815
 Sum of Mulliken charges =  -0.00000

 Dipole moment (field-independent basis, Debye):
    X=              0.0000    Y=             -0.0000    Z=              0.0000  Tot=              0.0000
 Quadrupole moment (field-independent basis, Debye-Ang):
   XX=            -37.8566   YY=            -41.8343   ZZ=            -53.3396
   XY=             -0.0000   XZ=              7.8455   YZ=             -0.0000

 Normal termination of Gaussian 16 at Tue Jan 14 13:37:20 2025.
