 Gaussian 16, Revision A.03,
 Gaussian 16:  ES64L-G16RevA.03 25-Dec-2016

 ----------------------------------------
 #P B3LYP/def2tzvp nosymm Density=Current
 ----------------------------------------

 ------------
 Single-Point
 ------------
 Symbolic Z-matrix:
 Charge = -1 Multiplicity = 1

                          Input orientation:
 ---------------------------------------------------------------------
 Center     Atomic      Atomic             Coordinates (Angstroms)
 Number     Number       Type             X           Y           Z
 ---------------------------------------------------------------------
      1          6           0        0.000000   -1.873598    0.000000
      2          6           0        1.195394   -1.136093    0.000000
      3          6           0        1.208284    0.242347    0.000000
      4          6           0        0.000000    1.037428    0.000000
      5          6           0       -1.208284    0.242347    0.000000
      6          6           0       -1.195394   -1.136093    0.000000
      7          1           0        0.000000   -2.956867    0.000000
      8          1           0        2.146790   -1.665233    0.000000
      9          1           0        2.161679    0.764557    0.000000
     10          1           0       -2.161679    0.764557    0.000000
     11          1           0       -2.146790   -1.665233    0.000000
     12          6           0        0.000000    2.421876    0.000000
     13          1           0        0.926533    2.984474    0.000000
     14          1           0       -0.926533    2.984474    0.000000
 ---------------------------------------------------------------------

 SCF Done:  E(RB3LYP) =  -271.044378364     A.U. after   14 cycles

 Alpha  occ. eigenvalues --   -9.99429  -9.99429  -9.99121  -9.97566  -9.97564
 Alpha  occ. eigenvalues --   -9.97305  -9.93589  -0.66056  -0.57234  -0.55837
 Alpha  occ. eigenvalues --   -0.47071  -0.41350  -0.38813  -0.32391  -0.27606
 Alpha  occ. eigenvalues --   -0.27152  -0.23553  -0.22518  -0.19345  -0.18349
 Alpha  occ. eigenvalues --   -0.17162  -0.14299  -0.09129  -0.07518   0.03855
 Alpha virt. eigenvalues --    0.17277   0.19365   0.20072   0.21374   0.22420
 Alpha virt. eigenvalues --    0.24058   0.24766   0.27125   0.28705   0.30922
 Alpha virt. eigenvalues --    0.31519   0.33152   0.35799   0.36899   0.37496

 Mulliken charges:
               1
     1  C   -0.241890
     2  C   -0.059537
     3  C   -0.255152
     4  C    0.258787
     5  C   -0.255152
     6  C   -0.059536
     7  H    0.018233
     8  H    0.020599
     9  H    0.013743
    10  H    0.013743
    11  H    0.020599
    12  C   -0.516155
    13  H    0.020859
    14  H    0.020859
 Sum of Mulliken charges =  -1.00000

 Dipole moment (field-independent basis, Debye):
    X=              0.0000    Y=             -2.4434    Z=              0.0000  Tot=              2.4434
 Quadrupole moment (field-independent basis, Debye-Ang):
   XX=            -48.1526   YY=            -63.1899   ZZ=            -52.5108
   XY=             -0.0000   XZ=             -0.0000   YZ=              0.0000

 Normal termination of Gaussian 16 at Tue Jan 14 13:55:16 2025.
