 Gaussian 16, Revision A.03,
 Gaussian 16:  ES64L-G16RevA.03 25-Dec-2016

 ----------------------------------------
 #P B3LYP/def2tzvp nosymm Density=Current
 ----------------------------------------

 ------------
 Single-Point
 ------------
 Symbolic Z-matrix:
 Charge =  1 Multiplicity = 1

                          Input orientation:
 ---------------------------------------------------------------------
 Center     Atomic      Atomic             Coordinates (Angstroms)
 Number     Number       Type             X           Y           Z
 ---------------------------------------------------------------------
      1          6           0        0.000000   -1.822047    0.000000
      2          6           0        1.199226   -1.123877    0.000000
      3          6           0        1.229764    0.261309    0.000000
      4          6           0        0.000000    0.960317    0.000000
      5          6           0       -1.229764    0.261309    0.000000
      6          6           0       -1.199226   -1.123877    0.000000
      7          1           0        0.000000   -2.903121    0.000000
      8          1           0        2.144382   -1.653448    0.000000
      9          1           0        2.168900    0.794364    0.000000
     10          1           0       -2.168900    0.794364    0.000000
     11          1           0       -2.144382   -1.653448    0.000000
     12          6           0        0.000000    2.372370    0.000000
     13          1           0        0.000000    2.954138    0.927061
     14          1           0        0.000000    2.954138   -0.927061
 ---------------------------------------------------------------------

 SCF Done:  E(RB3LYP) =  -270.679933984     A.U. after   16 cycles

 Alpha  occ. eigenvalues --  -10.53611 -10.40509 -10.38007 -10.38006 -10.35420
 Alpha  occ. eigenvalues --  -10.35418 -10.34824  -1.07403  -1.00041  -0.93785
 Alpha  occ. eigenvalues --   -0.89972  -0.79704  -0.79193  -0.71973  -0.71813
 Alpha  occ. eigenvalues --   -0.66402  -0.65091  -0.61343  -0.61011  -0.55291
 Alpha  occ. eigenvalues --   -0.53724  -0.53361  -0.44190  -0.44053
 Alpha virt. eigenvalues --   -0.39325  -0.20855  -0.19346  -0.13471  -0.09783
 Alpha virt. eigenvalues --   -0.08554  -0.07388  -0.05275  -0.04102  -0.03203
 Alpha virt. eigenvalues --   -0.02913  -0.02693  -0.00228   0.01009   0.01666

 Mulliken charges:
               1
     1  C   -0.113456
     2  C   -0.069813
     3  C   -0.169373
     4  C    0.152544
     5  C   -0.169373
     6  C   -0.069813
     7  H    0.170679
     8  H    0.173806
     9  H    0.171766
    10  H    0.171766
    11  H    0.173806
    12  C    0.099661
    13  H    0.238900
    14  H    0.238900
 Sum of Mulliken charges =   1.00000

 Dipole moment (field-independent basis, Debye):
    X=              0.0000    Y=              5.6202    Z=              0.0000  Tot=              5.6202
 Quadrupole moment (field-independent basis, Debye-Ang):
   XX=            -29.5034   YY=             -9.6548   ZZ=            -41.1972
   XY=             -0.0000   XZ=              0.0000   YZ=              0.0000

 Normal termination of Gaussian 16 at Tue Jan 14 13:58:28 2025.
