 Gaussian 16, Revision A.03,
 Gaussian 16:  ES64L-G16RevA.03 25-Dec-2016

 -------------------------------------------------
 #p opt freq b3lyp nosymm density=current def2tzvp
 -------------------------------------------------

 ------------
 Single-Point
 ------------
 Symbolic Z-matrix:
 Charge =  1 Multiplicity = 1

 SCF Done:  E(RB3LYP) =  -495.251421160     A.U. after   23 cycles
 SCF Done:  E(RB3LYP) =  -495.275792589     A.U. after   13 cycles
 SCF Done:  E(RB3LYP) =  -495.279744659     A.U. after   15 cycles
 SCF Done:  E(RB3LYP) =  -495.275723645     A.U. after   14 cycles
 SCF Done:  E(RB3LYP) =  -495.279935335     A.U. after   12 cycles
 SCF Done:  E(RB3LYP) =  -495.279948530     A.U. after   13 cycles
 SCF Done:  E(RB3LYP) =  -495.279940943     A.U. after   11 cycles
 SCF Done:  E(RB3LYP) =  -495.279963059     A.U. after   11 cycles
 SCF Done:  E(RB3LYP) =  -495.279963157     A.U. after    8 cycles
 Optimization completed.
    -- Stationary point found.
 Normal termination of Gaussian 16 at Mon Jan 20 14:54:14 2025.

 --------------------------------------------------------------------
 #P Geom=AllCheck Guess=TCheck SCRF=Check GenChk RB3LYP/def2TZVP Freq
 --------------------------------------------------------------------

 Structure from the checkpoint file:  "C6H5O+.chk"
 ------------
 Single-Point
 ------------
 Charge =  1 Multiplicity = 1

                          Input orientation:
 ---------------------------------------------------------------------
 Center     Atomic      Atomic             Coordinates (Angstroms)
 Number     Number       Type             X           Y           Z
 ---------------------------------------------------------------------
      1          6           0        0.032175   -1.759109   -0.025154
      2          6           0        1.264707   -1.056138   -0.029034
      3          6           0        1.255018    0.299911   -0.003616
      4          6           0       -0.045930    1.026687    0.027775
      5          6           0       -1.303688    0.227538    0.030018
      6          6           0       -1.243018   -1.130253    0.003752
      7          1           0        0.054800   -2.843554   -0.045408
      8          1           0        2.190108   -1.616387   -0.052120
      9          1           0        2.153429    0.905399   -0.004656
     10          1           0       -2.248018    0.760368    0.052767
     11          8           0       -0.082907    2.236194    0.050877
     12          6           0       -2.532687   -1.919308    0.006285
     13          8           0       -3.602847   -1.388777    0.031232
     14          8           0       -2.295319   -3.234254   -0.022433
     15          1           0       -3.141001   -3.716121   -0.020142
 ---------------------------------------------------------------------

 SCF Done:  E(RB3LYP) =  -495.279963157     A.U. after    1 cycles

 Alpha  occ. eigenvalues --  -19.36894 -19.35224 -19.29349 -10.49189 -10.49113
 Alpha  occ. eigenvalues --  -10.46930 -10.44073 -10.43885 -10.42779 -10.41882
 Alpha  occ. eigenvalues --   -1.29019  -1.28434  -1.20506  -1.09759  -1.00941
 Alpha  occ. eigenvalues --   -0.96134  -0.87826  -0.83503  -0.80178  -0.74714
 Alpha  occ. eigenvalues --   -0.72100  -0.69622  -0.67920  -0.65793  -0.65522
 Alpha  occ. eigenvalues --   -0.65478  -0.63266  -0.61509  -0.60792  -0.57757
 Alpha  occ. eigenvalues --   -0.56823  -0.51379  -0.49652  -0.49197  -0.46529
 Alpha virt. eigenvalues --   -0.39120  -0.26054  -0.22887  -0.14583  -0.12402
 Alpha virt. eigenvalues --   -0.10319  -0.08175  -0.07735  -0.06923  -0.06503
 Alpha virt. eigenvalues --   -0.05090  -0.03245  -0.01240  -0.00252   0.00300

 Mulliken charges:
               1
     1  C    0.041339
     2  C   -0.075718
     3  C   -0.050351
     4  C    0.288063
     5  C   -0.073591
     6  C   -0.010049
     7  H    0.230389
     8  H    0.201371
     9  H    0.215398
    10  H    0.230251
    11  O   -0.101936
    12  C    0.328683
    13  O   -0.227369
    14  O   -0.361473
    15  H    0.364992
 Sum of Mulliken charges =   1.00000

 Dipole moment (field-independent basis, Debye):
    X=              0.3754    Y=             -5.9031    Z=             -0.0782  Tot=              5.9156
 Quadrupole moment (field-independent basis, Debye-Ang):
   XX=            -41.7258   YY=            -34.6845   ZZ=            -53.1246
   XY=              8.2337   XZ=              0.0076   YZ=              0.1881

  Exact polarizability: 100.826   9.241 110.663  -0.629   1.163  42.013
 Approx polarizability: 157.158  -1.021 216.395  -1.248   2.804  67.536

                      1                      2                      3
                      A                      A                      A
 Frequencies --     54.7005               126.3702               144.0568
 Red. masses --      9.7150                 5.7347                 3.8569
 Frc consts  --      0.0171                 0.0540                 0.0472
 IR Inten    --      0.0431                 4.0684                 2.0881

                      4                      5                      6
                      A                      A                      A
 Frequencies --    181.3259               329.5522               345.6693
 Red. masses --      7.4884                 2.9087                 8.5291
 Frc consts  --      0.1451                 0.1861                 0.6004
 IR Inten    --      0.8785                 0.0472                 4.3682

                      7                      8                      9
                      A                      A                      A
 Frequencies --    382.3279               419.1566               500.7416
 Red. masses --      2.9055                 8.6881                 6.3014
 Frc consts  --      0.2502                 0.8993                 0.9309
 IR Inten    --     22.3813                12.3093                 1.4772

                     10                     11                     12
                      A                      A                      A
 Frequencies --    539.3767               605.0645               605.2065
 Red. masses --      6.6625                 1.3975                 5.7158
 Frc consts  --      1.1420                 0.3014                 1.2335
 IR Inten    --      7.7496                 9.4339                51.1113

                     13                     14                     15
                      A                      A                      A
 Frequencies --    641.1882               707.0726               765.1767
 Red. masses --      1.5103                 4.8976                 4.5785
 Frc consts  --      0.3658                 1.4426                 1.5794
 IR Inten    --    105.0938                44.5133                31.9673

                     16                     17                     18
                      A                      A                      A
 Frequencies --    822.4435               847.7334               965.0487
 Red. masses --      1.6410                 3.7231                 1.8614
 Frc consts  --      0.6540                 1.5764                 1.0214
 IR Inten    --     21.5483                 0.0347                10.0076

                     19                     20                     21
                      A                      A                      A
 Frequencies --    990.9407              1047.2196              1069.7887
 Red. masses --      5.5548                 1.3856                 1.5423
 Frc consts  --      3.2138                 0.8953                 1.0399
 IR Inten    --      1.2180                 0.7280                 3.7013

                     22                     23                     24
                      A                      A                      A
 Frequencies --   1075.5660              1117.1426              1169.6722
 Red. masses --      2.7993                 1.7413                 1.5133
 Frc consts  --      1.9080                 1.2804                 1.2199
 IR Inten    --     18.3505                30.0275               141.4028

                     25                     26                     27
                      A                      A                      A
 Frequencies --   1174.2685              1251.2347              1307.3566
 Red. masses --      1.9450                 1.8556                 1.7800
 Frc consts  --      1.5801                 1.7116                 1.7925
 IR Inten    --    110.1846                 5.0330                49.7880

                     28                     29                     30
                      A                      A                      A
 Frequencies --   1367.0465              1421.3373              1481.8529
 Red. masses --      2.5010                 1.6015                 5.2581
 Frc consts  --      2.7538                 1.9062                 6.8029
 IR Inten    --     89.4630                28.4713               174.5358

                     31                     32                     33
                      A                      A                      A
 Frequencies --   1579.9073              1647.2471              1722.2742
 Red. masses --      3.6371                 7.0313                11.0509
 Frc consts  --      5.3490                11.2410                19.3131
 IR Inten    --     39.8775               134.6508                13.3798

                     34                     35                     36
                      A                      A                      A
 Frequencies --   1837.8081              3190.0288              3198.3560
 Red. masses --     11.4830                 1.0913                 1.0940
 Frc consts  --     22.8511                 6.5432                 6.5934
 IR Inten    --    267.1425                 7.3709                29.1230

                     37                     38                     39
                      A                      A                      A
 Frequencies --   3201.4857              3212.4145              3697.2122
 Red. masses --      1.0909                 1.0993                 1.0648
 Frc consts  --      6.5878                 6.6840                 8.5758
 IR Inten    --     13.4031                13.6286               218.1048

 - Thermochemistry -
 -------------------
 Temperature   298.150 Kelvin.  Pressure   1.00000 Atm.
 Atom     1 has atomic number  6 and mass  12.00000

 Molecular mass:   137.02387 amu.
 Principal axes and moments of inertia in atomic units:
                           1         2         3
     Eigenvalues --   654.134161891.017782545.15181
           X            0.69795   0.71602   0.01361
           Y            0.71614  -0.69771  -0.01882
           Z            0.00398  -0.02288   0.99973
 This molecule is an asymmetric top.
 Rotational symmetry number  1.
 Warning -- assumption of classical behavior for rotation
           may cause significant error
 Rotational temperatures (Kelvin)      0.13241     0.04580     0.03403
 Rotational constants (GHZ):           2.75898     0.95438     0.70909
 Zero-point vibrational energy     279581.5 (Joules/Mol)
                                   66.82158 (Kcal/Mol)
 Warning -- explicit consideration of  12 degrees of freedom as
           vibrations may cause significant error
 Vibrational temperatures:     78.70   181.82   207.27   260.89   474.15
          (Kelvin)            497.34   550.08   603.07   720.46   776.04
                              870.55   870.76   922.53  1017.32  1100.92
                             1183.31  1219.70  1388.49  1425.74  1506.72
                             1539.19  1547.50  1607.32  1682.90  1689.51
                             1800.25  1880.99  1966.88  2044.99  2132.06
                             2273.13  2370.02  2477.97  2644.20  4589.74
                             4601.72  4606.22  4621.95  5319.46

 Zero-point correction=                           0.106487 (Hartree/Particle)
 Thermal correction to Energy=                    0.114935
 Thermal correction to Enthalpy=                  0.115879
 Thermal correction to Gibbs Free Energy=         0.072472
 Sum of electronic and zero-point Energies=           -495.173476
 Sum of electronic and thermal Energies=              -495.165029
 Sum of electronic and thermal Enthalpies=            -495.164084
 Sum of electronic and thermal Free Energies=         -495.207491

                     E (Thermal)             CV                S
                      KCal/Mol        Cal/Mol-Kelvin    Cal/Mol-Kelvin
 Total                   72.123             31.116             91.357
 Electronic               0.000              0.000              0.000
 Translational            0.889              2.981             40.657
 Rotational               0.889              2.981             29.533
 Vibrational             70.345             25.154             21.167
 Vibration     1          0.596              1.976              4.640
 Vibration     2          0.611              1.927              3.001
 Vibration     3          0.616              1.909              2.749
 Vibration     4          0.630              1.865              2.315
 Vibration     5          0.712              1.616              1.262
 Vibration     6          0.724              1.584              1.186
 Vibration     7          0.752              1.508              1.030
 Vibration     8          0.782              1.429              0.895
 Vibration     9          0.856              1.248              0.656
 Vibration    10          0.894              1.163              0.567
 Vibration    11          0.964              1.021              0.441
 Vibration    12          0.964              1.021              0.441

 Optimization completed.
    -- Stationary point found.
 Normal termination of Gaussian 16 at Mon Jan 20 15:16:44 2025.
