 Gaussian 16, Revision A.03,
 Gaussian 16:  ES64L-G16RevA.03 25-Dec-2016

 ----------------------------------------
 #P B3LYP/def2tzvp nosymm Density=Current
 ----------------------------------------

 ------------
 Single-Point
 ------------
 Symbolic Z-matrix:
 Charge =  1 Multiplicity = 1

                          Input orientation:
 ---------------------------------------------------------------------
 Center     Atomic      Atomic             Coordinates (Angstroms)
 Number     Number       Type             X           Y           Z
 ---------------------------------------------------------------------
      1          6           0        1.912767    0.000000    0.005938
      2          6           0        1.222940    1.207648    0.001503
      3          6           0       -0.167303    1.217653   -0.005735
      4          6           0       -0.824157    0.000000   -0.008932
      5          6           0       -0.167303   -1.217653   -0.005735
      6          6           0        1.222940   -1.207648    0.001503
      7          1           0        2.994414    0.000000    0.009257
      8          1           0        1.762052    2.145031    0.000424
      9          1           0       -0.709566    2.155895   -0.009396
     10          1           0       -0.709566   -2.155895   -0.009396
     11          1           0        1.762052   -2.145031    0.000424
     12          7           0       -2.317992    0.000000    0.007719
     13          1           0       -2.690839   -0.825094   -0.469780
     14          1           0       -2.691075   -0.000033    0.962902
     15          1           0       -2.690837    0.825129   -0.469721
 ---------------------------------------------------------------------

 SCF Done:  E(RB3LYP) =  -288.065979567     A.U. after   12 cycles

 Alpha  occ. eigenvalues --  -14.64492 -10.40872 -10.35430 -10.35428 -10.33889
 Alpha  occ. eigenvalues --  -10.33887 -10.33390  -1.20934  -1.03096  -0.92500
 Alpha  occ. eigenvalues --   -0.92255  -0.81141  -0.79567  -0.78487  -0.75072
 Alpha  occ. eigenvalues --   -0.71922  -0.65814  -0.62404  -0.60439  -0.59621
 Alpha  occ. eigenvalues --   -0.54542  -0.52579  -0.51862  -0.43040  -0.42672
 Alpha virt. eigenvalues --   -0.18808  -0.18587  -0.18334  -0.12237  -0.11856
 Alpha virt. eigenvalues --   -0.10061  -0.05285  -0.04548  -0.03057  -0.02612
 Alpha virt. eigenvalues --   -0.02242  -0.01743   0.00196   0.02398   0.04647

 Mulliken charges:
               1
     1  C   -0.117266
     2  C   -0.080970
     3  C   -0.214214
     4  C    0.218190
     5  C   -0.214217
     6  C   -0.080968
     7  H    0.162886
     8  H    0.163814
     9  H    0.160075
    10  H    0.160075
    11  H    0.163814
    12  N   -0.288598
    13  H    0.320783
    14  H    0.325814
    15  H    0.320782
 Sum of Mulliken charges =   1.00000

 Dipole moment (field-independent basis, Debye):
    X=             -7.0513    Y=             -0.0000    Z=              0.0494  Tot=              7.0515
 Quadrupole moment (field-independent basis, Debye-Ang):
   XX=             -7.3642   YY=            -30.3330   ZZ=            -41.5060
   XY=             -0.0000   XZ=             -0.0583   YZ=              0.0000

 Normal termination of Gaussian 16 at Tue Jan 14 14:16:13 2025.
