 Gaussian 16, Revision A.03,
 Gaussian 16:  ES64L-G16RevA.03 25-Dec-2016

 -------------------------
 # opt freq b3lyp def2tzvp
 -------------------------

 --------
 opt meta
 --------
 Symbolic Z-matrix:
 Charge =  0 Multiplicity = 1

 SCF Done:  E(RB3LYP) =  -531.728178933     A.U. after   14 cycles
 SCF Done:  E(RB3LYP) =  -531.748619952     A.U. after   13 cycles
 SCF Done:  E(RB3LYP) =  -531.756621533     A.U. after   13 cycles
 SCF Done:  E(RB3LYP) =  -531.758873994     A.U. after   15 cycles
 SCF Done:  E(RB3LYP) =  -531.759026817     A.U. after   13 cycles
 SCF Done:  E(RB3LYP) =  -531.757712621     A.U. after   13 cycles
 SCF Done:  E(RB3LYP) =  -531.758742231     A.U. after   13 cycles
 SCF Done:  E(RB3LYP) =  -531.759247763     A.U. after   11 cycles
 SCF Done:  E(RB3LYP) =  -531.759358772     A.U. after   12 cycles
 SCF Done:  E(RB3LYP) =  -531.759369698     A.U. after    9 cycles
 SCF Done:  E(RB3LYP) =  -531.759371941     A.U. after    8 cycles
 SCF Done:  E(RB3LYP) =  -531.759372527     A.U. after    8 cycles
 Optimization completed.
    -- Stationary point found.
 Normal termination of Gaussian 16 at Mon Jan 20 16:21:49 2025.

 --------------------------------------------------------------------
 #N Geom=AllCheck Guess=TCheck SCRF=Check GenChk RB3LYP/def2TZVP Freq
 --------------------------------------------------------------------

 Structure from the checkpoint file:  "C6H4-NH2-2.chk"
 --------
 opt meta
 --------
 Charge =  0 Multiplicity = 1

                         Standard orientation:
 ---------------------------------------------------------------------
 Center     Atomic      Atomic             Coordinates (Angstroms)
 Number     Number       Type             X           Y           Z
 ---------------------------------------------------------------------
      1          6           0        1.972757   -0.440123   -0.008230
      2          6           0        2.105816    0.957651   -0.022419
      3          6           0        1.003071    1.781881   -0.004798
      4          6           0       -0.307082    1.269020    0.015064
      5          6           0       -0.450547   -0.139581    0.012061
      6          6           0        0.692192   -0.961560    0.007845
      7          1           0        3.933803   -0.874408    0.343907
      8          1           0        2.954079   -2.209228    0.233113
      9          1           0        3.096199    1.398581   -0.049442
     10          1           0        1.141000    2.856903   -0.002662
     11          7           0       -1.374073    2.127783    0.081020
     12          1           0        0.549744   -2.033426    0.007758
     13          7           0        3.108644   -1.264696   -0.086314
     14          1           0       -1.220195    3.084804   -0.182637
     15          1           0       -2.289007    1.733705   -0.077327
     16          6           0       -1.785615   -0.744471   -0.005173
     17          8           0       -2.845332   -0.142997   -0.045552
     18          8           0       -1.777598   -2.102321    0.020630
     19          1           0       -2.707727   -2.372892   -0.002368
 ---------------------------------------------------------------------

 SCF Done:  E(RB3LYP) =  -531.759372527     A.U. after    1 cycles

 The electronic state is 1-A.
 Alpha  occ. eigenvalues --  -19.17018 -19.11346 -14.31901 -14.31657 -10.30432
 Alpha  occ. eigenvalues --  -10.22308 -10.20868 -10.18535 -10.18154 -10.17573
 Alpha  occ. eigenvalues --  -10.17433  -1.10763  -1.01537  -0.92736  -0.91565
 Alpha  occ. eigenvalues --   -0.83343  -0.77062  -0.72204  -0.66451  -0.62527
 Alpha  occ. eigenvalues --   -0.58955  -0.54118  -0.52799  -0.51568  -0.50127
 Alpha  occ. eigenvalues --   -0.47919  -0.46967  -0.45456  -0.43757  -0.42360
 Alpha  occ. eigenvalues --   -0.40885  -0.39630  -0.39297  -0.36015  -0.35162
 Alpha  occ. eigenvalues --   -0.32535  -0.28519  -0.27667  -0.26486  -0.18977
 Alpha virt. eigenvalues --   -0.05107   0.00741   0.02846   0.03694   0.04353
 Alpha virt. eigenvalues --    0.05600   0.06375   0.08007   0.10099   0.11488
 Alpha virt. eigenvalues --    0.13219   0.13611   0.15728   0.16327   0.18123

 Mulliken charges:
               1
     1  C    0.288527
     2  C   -0.190120
     3  C   -0.199864
     4  C    0.190620
     5  C   -0.067752
     6  C   -0.252924
     7  H    0.215542
     8  H    0.215723
     9  H    0.102366
    10  H    0.091812
    11  N   -0.421743
    12  H    0.116808
    13  N   -0.462134
    14  H    0.213861
    15  H    0.256186
    16  C    0.369276
    17  O   -0.389689
    18  O   -0.390862
    19  H    0.314367
 Sum of Mulliken charges =  -0.00000

 Dipole moment (field-independent basis, Debye):
    X=              1.8646    Y=              0.1425    Z=              0.4906  Tot=              1.9333
 Quadrupole moment (field-independent basis, Debye-Ang):
   XX=            -58.8873   YY=            -51.6976   ZZ=            -68.3127
   XY=              1.5282   XZ=              4.9199   YZ=             -3.3548

  Exact polarizability: 144.468  -3.375 125.323  -0.007  -0.173  56.319
 Approx polarizability: 227.983  -8.584 211.263  -1.367   0.696  90.162

                      1                      2                      3
                      A                      A                      A
 Frequencies --     74.2988               129.5310               164.3277
 Red. masses --      9.0248                 4.7909                 4.3827
 Frc consts  --      0.0294                 0.0474                 0.0697
 IR Inten    --      0.5384                 0.1868                 9.9373

                      4                      5                      6
                      A                      A                      A
 Frequencies --    214.6951               220.6928               331.2617
 Red. masses --      5.5828                 1.0435                 2.3496
 Frc consts  --      0.1516                 0.0299                 0.1519
 IR Inten    --      1.9158                20.7727                60.4130

                      7                      8                      9
                      A                      A                      A
 Frequencies --    352.5051               365.8350               389.9989
 Red. masses --      2.8820                 1.8708                 4.6970
 Frc consts  --      0.2110                 0.1475                 0.4209
 IR Inten    --     19.8551               145.2674                 8.6114

                     10                     11                     12
                      A                      A                      A
 Frequencies --    416.2689               432.2929               485.7232
 Red. masses --      5.4043                 3.1323                 6.4676
 Frc consts  --      0.5517                 0.3449                 0.8990
 IR Inten    --      1.1084                 5.9927                 1.0251

                     13                     14                     15
                      A                      A                      A
 Frequencies --    528.5273               544.4578               575.2610
 Red. masses --      2.6491                 1.9299                 1.2058
 Frc consts  --      0.4360                 0.3371                 0.2351
 IR Inten    --     24.7136                26.5740               158.9444

                     16                     17                     18
                      A                      A                      A
 Frequencies --    585.4213               656.1407               671.8248
 Red. masses --      1.4245                 1.5001                 4.9100
 Frc consts  --      0.2876                 0.3805                 1.3057
 IR Inten    --     38.8771               248.6898                49.5695

                     19                     20                     21
                      A                      A                      A
 Frequencies --    725.6660               741.5765               806.7359
 Red. masses --      3.9402                 4.3144                 3.3609
 Frc consts  --      1.2225                 1.3979                 1.2888
 IR Inten    --     18.4670                10.3558                 9.5798

                     22                     23                     24
                      A                      A                      A
 Frequencies --    814.6750               837.5014               903.9123
 Red. masses --      3.6377                 2.0974                 1.6775
 Frc consts  --      1.4225                 0.8668                 0.8076
 IR Inten    --      5.8965                53.7884                 9.9506

                     25                     26                     27
                      A                      A                      A
 Frequencies --    934.6642               945.6294              1066.6289
 Red. masses --      1.3266                 4.1921                 2.4342
 Frc consts  --      0.6828                 2.2086                 1.6317
 IR Inten    --      0.0488                 2.9722                30.4242

                     28                     29                     30
                      A                      A                      A
 Frequencies --   1083.9904              1128.0279              1180.0669
 Red. masses --      2.2909                 1.2979                 1.6409
 Frc consts  --      1.5860                 0.9731                 1.3463
 IR Inten    --    117.6079                 6.8414               407.7573

                     31                     32                     33
                      A                      A                      A
 Frequencies --   1191.3352              1286.6018              1303.3282
 Red. masses --      1.2114                 2.1425                 3.8857
 Frc consts  --      1.0130                 2.0896                 3.8889
 IR Inten    --     17.2213                48.5989                11.2648

                     34                     35                     36
                      A                      A                      A
 Frequencies --   1342.2956              1360.3886              1397.2676
 Red. masses --      1.6037                 2.9179                 5.2868
 Frc consts  --      1.7025                 3.1816                 6.0814
 IR Inten    --     43.4850                95.9205                36.8481

                     37                     38                     39
                      A                      A                      A
 Frequencies --   1478.4664              1531.1499              1601.0694
 Red. masses --      3.4981                 2.5506                 2.9457
 Frc consts  --      4.5051                 3.5231                 4.4490
 IR Inten    --     14.4508                97.0651               181.6958

                     40                     41                     42
                      A                      A                      A
 Frequencies --   1627.7189              1658.0292              1678.1863
 Red. masses --      1.7610                 1.1523                 4.4788
 Frc consts  --      2.7490                 1.8665                 7.4318
 IR Inten    --    180.5970                71.8026                 6.9222

                     43                     44                     45
                      A                      A                      A
 Frequencies --   1741.9243              3155.0909              3172.6365
 Red. masses --      6.5175                 1.0864                 1.0939
 Frc consts  --     11.6517                 6.3716                 6.4874
 IR Inten    --    332.9077                13.4467                16.1103

                     46                     47                     48
                      A                      A                      A
 Frequencies --   3199.3443              3538.3098              3539.6555
 Red. masses --      1.0895                 1.0489                 1.0479
 Frc consts  --      6.5705                 7.7369                 7.7355
 IR Inten    --      4.9173                89.9509                 2.8535

                     49                     50                     51
                      A                      A                      A
 Frequencies --   3629.7812              3678.9806              3742.9682
 Red. masses --      1.0972                 1.0992                 1.0642
 Frc consts  --      8.5173                 8.7656                 8.7846
 IR Inten    --     11.5591                55.6927                95.1009

 - Thermochemistry -
 -------------------
 Temperature   298.150 Kelvin.  Pressure   1.00000 Atm.
 Atom     1 has atomic number  6 and mass  12.00000

 Molecular mass:   152.05858 amu.
 Principal axes and moments of inertia in atomic units:
                           1         2         3
     Eigenvalues --  1015.103421969.609202981.52758
           X            0.99984  -0.01741   0.00421
           Y            0.01744   0.99983  -0.00566
           Z           -0.00411   0.00574   0.99998
 This molecule is an asymmetric top.
 Rotational symmetry number  1.
 Warning -- assumption of classical behavior for rotation
           may cause significant error
 Rotational temperatures (Kelvin)      0.08533     0.04398     0.02905
 Rotational constants (GHZ):           1.77789     0.91629     0.60531
 Zero-point vibrational energy     389759.3 (Joules/Mol)
                                   93.15471 (Kcal/Mol)
 Warning -- explicit consideration of  16 degrees of freedom as
           vibrations may cause significant error
 Vibrational temperatures:    106.90   186.37   236.43   308.90   317.53
          (Kelvin)            476.61   507.18   526.35   561.12   598.92
                              621.97   698.85   760.43   783.35   827.67
                              842.29   944.04   966.61  1044.07  1066.96
                             1160.71  1172.14  1204.98  1300.53  1344.77
                             1360.55  1534.64  1559.62  1622.98  1697.85
                             1714.07  1851.13  1875.20  1931.26  1957.30
                             2010.36  2127.18  2202.98  2303.58  2341.92
                             2385.53  2414.54  2506.24  4539.47  4564.72
                             4603.14  5090.84  5092.77  5222.45  5293.23
                             5385.30

 Zero-point correction=                           0.148451 (Hartree/Particle)
 Thermal correction to Energy=                    0.158391
 Thermal correction to Enthalpy=                  0.159335
 Thermal correction to Gibbs Free Energy=         0.113580
 Sum of electronic and zero-point Energies=           -531.610921
 Sum of electronic and thermal Energies=              -531.600982
 Sum of electronic and thermal Enthalpies=            -531.600038
 Sum of electronic and thermal Free Energies=         -531.645792

                     E (Thermal)             CV                S
                      KCal/Mol        Cal/Mol-Kelvin    Cal/Mol-Kelvin
 Total                   99.392             39.074             96.299
 Electronic               0.000              0.000              0.000
 Translational            0.889              2.981             40.967
 Rotational               0.889              2.981             30.167
 Vibrational             97.614             33.113             25.164
 Vibration     1          0.599              1.966              4.036
 Vibration     2          0.612              1.924              2.953
 Vibration     3          0.623              1.886              2.499
 Vibration     4          0.645              1.819              2.003
 Vibration     5          0.647              1.810              1.953
 Vibration     6          0.714              1.613              1.254
 Vibration     7          0.729              1.570              1.155
 Vibration     8          0.739              1.543              1.097
 Vibration     9          0.758              1.492              1.000
 Vibration    10          0.779              1.435              0.905
 Vibration    11          0.793              1.400              0.851
 Vibration    12          0.842              1.282              0.695
 Vibration    13          0.883              1.187              0.591
 Vibration    14          0.900              1.152              0.556
 Vibration    15          0.932              1.085              0.494
 Vibration    16          0.942              1.063              0.475

                           ! Non-Optimized Parameters !
 Normal termination of Gaussian 16 at Mon Jan 20 17:00:05 2025.
