 Gaussian 16, Revision A.03,
 Gaussian 16:  ES64L-G16RevA.03 25-Dec-2016

 -------------------------
 # opt freq b3lyp def2tzvp
 -------------------------

 --------
 opt meta
 --------
 Symbolic Z-matrix:
 Charge =  1 Multiplicity = 1

 SCF Done:  E(RB3LYP) =  -475.391827789     A.U. after   18 cycles
 SCF Done:  E(RB3LYP) =  -475.416891204     A.U. after   13 cycles
 SCF Done:  E(RB3LYP) =  -475.421775654     A.U. after   12 cycles
 SCF Done:  E(RB3LYP) =  -475.416954652     A.U. after   14 cycles
 SCF Done:  E(RB3LYP) =  -475.422050807     A.U. after   11 cycles
 SCF Done:  E(RB3LYP) =  -475.422097110     A.U. after   11 cycles
 SCF Done:  E(RB3LYP) =  -475.422097429     A.U. after    9 cycles
 SCF Done:  E(RB3LYP) =  -475.422098103     A.U. after    8 cycles
 SCF Done:  E(RB3LYP) =  -475.422098149     A.U. after    7 cycles
 Optimization completed.
    -- Stationary point found.

 1\1\GINC-N11\FOpt\RB3LYP\def2TZVP\C7H6N1O2(1+)\UNKNOWN\21-Jan-2025\0\\
 # opt freq b3lyp def2tzvp\\opt meta\\1,1\C,0.0365169464,-1.79310017,-0
 .0256098068\C,1.2621733979,-1.1005855049,-0.0186017672\C,1.2553380591,
 0.2635874796,0.0078813742\C,-0.0142143631,0.9846916522,0.0285201103\C,
 -1.258414767,0.2250028697,0.0203926999\C,-1.2214198554,-1.1378910679,-
 0.0062107639\H,0.0436448181,-2.87670292,-0.0467179613\H,2.1897242848,-
 1.656396099,-0.0342527991\H,2.160324607,0.8578014572,0.0146545886\N,0.
 0504470086,2.2706847264,0.053111256\H,-2.2112072568,0.7432820449,0.035

 Normal termination of Gaussian 16 at Tue Jan 21 11:06:41 2025.

 --------------------------------------------------------------------
 #N Geom=AllCheck Guess=TCheck SCRF=Check GenChk RB3LYP/def2TZVP Freq
 --------------------------------------------------------------------

 Structure from the checkpoint file:  "C6H5NH+.chk"
 --------
 opt meta
 --------
 Charge =  1 Multiplicity = 1

                         Standard orientation:
 ---------------------------------------------------------------------
 Center     Atomic      Atomic             Coordinates (Angstroms)
 Number     Number       Type             X           Y           Z
 ---------------------------------------------------------------------
      1          6           0        0.103553    1.420152   -0.000218
      2          6           0       -1.251699    1.801142   -0.000100
      3          6           0       -2.214515    0.834342    0.000023
      4          6           0       -1.831026   -0.574600    0.000043
      5          6           0       -0.415055   -0.921375    0.000005
      6          6           0        0.525592    0.065913   -0.000105
      7          1           0        0.867149    2.189315   -0.000379
      8          1           0       -1.511336    2.850956   -0.000128
      9          1           0       -3.273981    1.057208    0.000109
     10          7           0       -2.788790   -1.435560    0.000161
     11          1           0       -0.111003   -1.962628    0.000114
     12          1           0       -2.455114   -2.405883    0.000202
     13          6           0        1.981368   -0.331125   -0.000029
     14          8           0        2.331669   -1.475499   -0.000317
     15          8           0        2.781713    0.738928    0.000415
     16          1           0        3.709459    0.445825    0.000450
 ---------------------------------------------------------------------

 SCF Done:  E(RB3LYP) =  -475.422098149     A.U. after    1 cycles

 The electronic state is 1-A.
 Alpha  occ. eigenvalues --  -19.34224 -19.28399 -14.55832 -10.48113 -10.44846
 Alpha  occ. eigenvalues --  -10.44140 -10.42576 -10.42310 -10.41199 -10.39976
 Alpha  occ. eigenvalues --   -1.28057  -1.19486  -1.14965  -1.07282  -0.99317
 Alpha  occ. eigenvalues --   -0.94162  -0.86667  -0.82865  -0.78710  -0.74680
 Alpha  occ. eigenvalues --   -0.71733  -0.67965  -0.67546  -0.65416  -0.64634
 Alpha  occ. eigenvalues --   -0.63709  -0.60690  -0.59898  -0.58695  -0.56454
 Alpha  occ. eigenvalues --   -0.53469  -0.50103  -0.49840  -0.48341  -0.45630
 Alpha virt. eigenvalues --   -0.36571  -0.24933  -0.21018  -0.13368  -0.11923
 Alpha virt. eigenvalues --   -0.10939  -0.09416  -0.07269  -0.06460  -0.05650
 Alpha virt. eigenvalues --   -0.05129  -0.03396  -0.01180   0.00602   0.01090

 Mulliken charges:
               1
     1  C   -0.003333
     2  C   -0.067099
     3  C   -0.029927
     4  C    0.135739
     5  C   -0.093035
     6  C   -0.025738
     7  H    0.219300
     8  H    0.192949
     9  H    0.208922
    10  N   -0.097667
    11  H    0.212315
    12  H    0.258430
    13  C    0.331706
    14  O   -0.243622
    15  O   -0.360062
    16  H    0.361122
 Sum of Mulliken charges =   1.00000

 Dipole moment (field-independent basis, Debye):
    X=             -2.6286    Y=              2.3343    Z=              0.0004  Tot=              3.5154
 Quadrupole moment (field-independent basis, Debye-Ang):
   XX=            -33.6696   YY=            -39.6706   ZZ=            -54.9521
   XY=              4.5042   XZ=              0.0016   YZ=             -0.0029

  Exact polarizability: 122.530  10.340 105.241  -0.003  -0.001  44.615
 Approx polarizability: 203.753  39.297 201.641  -0.009  -0.003  71.831

                      1                      2                      3
                      A                      A                      A
 Frequencies --     58.9243               137.1201               165.3737
 Red. masses --      8.4320                 5.2667                 3.5915
 Frc consts  --      0.0172                 0.0583                 0.0579
 IR Inten    --      1.3525                 1.5727                 0.0097

                      4                      5                      6
                      A                      A                      A
 Frequencies --    182.7349               351.6428               353.0686
 Red. masses --      6.3669                 2.8198                 7.4187
 Frc consts  --      0.1253                 0.2054                 0.5449
 IR Inten    --      2.8104                 6.9134                 8.0973

                      7                      8                      9
                      A                      A                      A
 Frequencies --    408.6240               424.1501               504.9693
 Red. masses --      5.0124                 3.0829                 5.8316
 Frc consts  --      0.4931                 0.3268                 0.8761
 IR Inten    --     14.4669                13.4775                 3.5089

                     10                     11                     12
                      A                      A                      A
 Frequencies --    548.1346               620.2192               624.5486
 Red. masses --      6.2650                 1.2684                 5.1566
 Frc consts  --      1.1090                 0.2875                 1.1851
 IR Inten    --      1.4845                27.1246                51.6025

                     13                     14                     15
                      A                      A                      A
 Frequencies --    641.3020               728.5256               765.6441
 Red. masses --      1.7321                 5.1135                 4.3369
 Frc consts  --      0.4197                 1.5990                 1.4979
 IR Inten    --    102.9630                43.8327                23.6198

                     16                     17                     18
                      A                      A                      A
 Frequencies --    817.8441               888.8770               889.3387
 Red. masses --      1.3858                 1.3905                 3.6444
 Frc consts  --      0.5461                 0.6473                 1.6983
 IR Inten    --     57.2332                 8.6573                 1.6869

                     19                     20                     21
                      A                      A                      A
 Frequencies --    999.7203              1001.6449              1039.5126
 Red. masses --      1.6768                 5.8473                 1.3731
 Frc consts  --      0.9874                 3.4564                 0.8742
 IR Inten    --     33.1563                 1.4685                 0.0837

                     22                     23                     24
                      A                      A                      A
 Frequencies --   1064.2606              1094.1712              1111.1143
 Red. masses --      1.5146                 2.0687                 2.3262
 Frc consts  --      1.0107                 1.4592                 1.6921
 IR Inten    --      3.0132                 6.8504               131.5719

                     25                     26                     27
                      A                      A                      A
 Frequencies --   1154.2494              1176.7680              1202.4177
 Red. masses --      1.2617                 2.0247                 1.1265
 Frc consts  --      0.9904                 1.6519                 0.9596
 IR Inten    --     47.5973               203.8912                 9.8151

                     28                     29                     30
                      A                      A                      A
 Frequencies --   1324.2528              1371.7122              1383.4397
 Red. masses --      1.4367                 2.5316                 2.3252
 Frc consts  --      1.4844                 2.8065                 2.6220
 IR Inten    --     10.5938               113.7866                74.3660

                     31                     32                     33
                      A                      A                      A
 Frequencies --   1443.2912              1473.1689              1575.4948
 Red. masses --      2.4627                 4.5905                 3.4907
 Frc consts  --      3.0225                 5.8697                 5.1050
 IR Inten    --     12.8595               108.3597                14.8706

                     34                     35                     36
                      A                      A                      A
 Frequencies --   1594.3192              1654.1685              1829.4331
 Red. masses --      7.5283                 6.2774                11.3218
 Frc consts  --     11.2745                10.1203                22.3253
 IR Inten    --      2.4926               182.3261               275.1618

                     37                     38                     39
                      A                      A                      A
 Frequencies --   3186.9832              3197.4405              3207.4238
 Red. masses --      1.0932                 1.0911                 1.0912
 Frc consts  --      6.5419                 6.5723                 6.6143
 IR Inten    --     16.2230                 5.3360                12.9857

                     40                     41                     42
                      A                      A                      A
 Frequencies --   3217.7795              3407.1452              3701.8290
 Red. masses --      1.0985                 1.0764                 1.0648
 Frc consts  --      6.7015                 7.3619                 8.5968
 IR Inten    --     10.6720                42.1265               205.6705

 - Thermochemistry -
 -------------------
 Temperature   298.150 Kelvin.  Pressure   1.00000 Atm.
 Atom     1 has atomic number  6 and mass  12.00000

 Molecular mass:   136.03985 amu.
 Principal axes and moments of inertia in atomic units:
                           1         2         3
     Eigenvalues --   655.062701870.913592525.97625
           X            0.99999   0.00537   0.00000
           Y           -0.00537   0.99999  -0.00001
           Z           -0.00000   0.00001   1.00000
 This molecule is an asymmetric top.
 Rotational symmetry number  1.
 Warning -- assumption of classical behavior for rotation
           may cause significant error
 Rotational temperatures (Kelvin)      0.13222     0.04629     0.03429
 Rotational constants (GHZ):           2.75507     0.96463     0.71447
 Zero-point vibrational energy     314156.0 (Joules/Mol)
                                   75.08509 (Kcal/Mol)
 Warning -- explicit consideration of  11 degrees of freedom as
           vibrations may cause significant error
 Vibrational temperatures:     84.78   197.29   237.94   262.91   505.94
          (Kelvin)            507.99   587.92   610.26   726.54   788.64
                              892.36   898.59   922.69  1048.19  1101.59
                             1176.70  1278.90  1279.56  1438.37  1441.14
                             1495.63  1531.23  1574.27  1598.65  1660.71
                             1693.11  1730.01  1905.30  1973.59  1990.46
                             2076.57  2119.56  2266.79  2293.87  2379.98
                             2632.15  4585.36  4600.40  4614.77  4629.67
                             4902.12  5326.11

 Zero-point correction=                           0.119656 (Hartree/Particle)
 Thermal correction to Energy=                    0.127991
 Thermal correction to Enthalpy=                  0.128935
 Thermal correction to Gibbs Free Energy=         0.085930
 Sum of electronic and zero-point Energies=           -475.302442
 Sum of electronic and thermal Energies=              -475.294108
 Sum of electronic and thermal Enthalpies=            -475.293163
 Sum of electronic and thermal Free Energies=         -475.336169

                     E (Thermal)             CV                S
                      KCal/Mol        Cal/Mol-Kelvin    Cal/Mol-Kelvin
 Total                   80.315             31.377             90.512
 Electronic               0.000              0.000              0.000
 Translational            0.889              2.981             40.635
 Rotational               0.889              2.981             29.516
 Vibrational             78.538             25.416             20.360
 Vibration     1          0.596              1.974              4.493
 Vibration     2          0.614              1.916              2.844
 Vibration     3          0.624              1.885              2.487
 Vibration     4          0.630              1.863              2.300
 Vibration     5          0.728              1.572              1.159
 Vibration     6          0.729              1.569              1.152
 Vibration     7          0.773              1.451              0.931
 Vibration     8          0.786              1.418              0.878
 Vibration     9          0.860              1.239              0.646
 Vibration    10          0.903              1.144              0.548
 Vibration    11          0.980              0.989              0.416

 Optimization completed.
    -- Stationary point found.

 1\1\GINC-N11\Freq\RB3LYP\def2TZVP\C7H6N1O2(1+)\UNKNOWN\21-Jan-2025\0\\
 #N Geom=AllCheck Guess=TCheck SCRF=Check GenChk RB3LYP/def2TZVP Freq\\
 opt meta\\1,1\C,0.0365169464,-1.79310017,-0.0256098068\C,1.2621733979,
 -1.1005855049,-0.0186017672\C,1.2553380591,0.2635874796,0.0078813742\C
 ,-0.0142143631,0.9846916522,0.0285201103\C,-1.258414767,0.2250028697,0
 .0203926999\C,-1.2214198554,-1.1378910679,-0.0062107639\H,0.0436448181
 ,-2.87670292,-0.0467179613\H,2.1897242848,-1.656396099,-0.0342527991\H
 ,2.160324607,0.8578014572,0.0146545886\N,0.0504470086,2.2706847264,0.0

 Normal termination of Gaussian 16 at Tue Jan 21 11:30:22 2025.
