 Gaussian 16, Revision A.03,
 Gaussian 16:  ES64L-G16RevA.03 25-Dec-2016

 -------------------------
 # opt freq b3lyp def2tzvp
 -------------------------

 ---
 opt
 ---
 Symbolic Z-matrix:
 Charge =  1 Multiplicity = 1

 SCF Done:  E(RB3LYP) =  -475.389491884     A.U. after   19 cycles
 SCF Done:  E(RB3LYP) =  -475.414540456     A.U. after   13 cycles
 SCF Done:  E(RB3LYP) =  -475.419599219     A.U. after   14 cycles
 SCF Done:  E(RB3LYP) =  -475.415596788     A.U. after   14 cycles
 SCF Done:  E(RB3LYP) =  -475.419879338     A.U. after   12 cycles
 SCF Done:  E(RB3LYP) =  -475.419941902     A.U. after   10 cycles
 SCF Done:  E(RB3LYP) =  -475.419942384     A.U. after    8 cycles
 Optimization completed.
    -- Stationary point found.

 1\1\GINC-N11\FOpt\RB3LYP\def2TZVP\C7H6N1O2(1+)\UNKNOWN\20-Jan-2025\0\\
 # opt freq b3lyp def2tzvp\\opt\\1,1\C,-0.0312185194,-1.783625685,0.008
 0311867\C,1.214442881,-1.1226676378,0.0051403927\C,1.2451923279,0.2410
 256352,-0.0076855629\C,-0.0003100832,1.0000754651,-0.0182381851\C,-1.2
 661612339,0.2743247772,-0.0137119641\C,-1.267324227,-1.0862763467,-0.0
 010175989\H,2.1162552546,-1.7195898932,0.0133293023\H,2.1687451151,0.8
 058522355,-0.0107132266\N,0.1056245737,2.2842048282,-0.0302976372\H,-2
 .1900605015,0.8406176446,-0.0208331541\H,-2.1899676518,-1.6485096322,0

 Normal termination of Gaussian 16 at Mon Jan 20 12:20:35 2025.

 --------------------------------------------------------------------
 #N Geom=AllCheck Guess=TCheck SCRF=Check GenChk RB3LYP/def2TZVP Freq
 --------------------------------------------------------------------

 Structure from the checkpoint file:  "C6H5NH+.chk"
 ---
 opt
 ---
 Charge =  1 Multiplicity = 1

                         Standard orientation:
 ---------------------------------------------------------------------
 Center     Atomic      Atomic             Coordinates (Angstroms)
 Number     Number       Type             X           Y           Z
 ---------------------------------------------------------------------
      1          6           0       -0.596407    0.027402    0.000366
      2          6           0        0.092678    1.257730    0.000981
      3          6           0        1.456778    1.257490    0.000927
      4          6           0        2.187402   -0.004941    0.000240
      5          6           0        1.433070   -1.253978   -0.001459
      6          6           0        0.072735   -1.224230   -0.001207
      7          1           0       -0.483654    2.172876    0.001381
      8          1           0        2.042444    2.167975    0.001556
      9          7           0        3.473663    0.071792    0.000419
     10          1           0        1.978270   -2.190506   -0.002706
     11          1           0       -0.510321   -2.133864   -0.002186
     12          1           0        3.929858   -0.847185   -0.000583
     13          6           0       -2.110633    0.102457   -0.000082
     14          8           0       -2.686935    1.153347   -0.002822
     15          8           0       -2.669039   -1.106718    0.002640
     16          1           0       -3.638188   -1.016457    0.002453
 ---------------------------------------------------------------------

 SCF Done:  E(RB3LYP) =  -475.419942384     A.U. after    1 cycles

 The electronic state is 1-A.
 Alpha  occ. eigenvalues --  -19.35073 -19.29920 -14.55548 -10.49174 -10.44744
 Alpha  occ. eigenvalues --  -10.44485 -10.42124 -10.41829 -10.40058 -10.39503
 Alpha  occ. eigenvalues --   -1.29114  -1.20615  -1.14641  -1.07029  -0.98308
 Alpha  occ. eigenvalues --   -0.95329  -0.85095  -0.83030  -0.79690  -0.74539
 Alpha  occ. eigenvalues --   -0.70748  -0.69047  -0.66062  -0.65295  -0.64830
 Alpha  occ. eigenvalues --   -0.64304  -0.61329  -0.60756  -0.57954  -0.56644
 Alpha  occ. eigenvalues --   -0.53182  -0.50381  -0.49478  -0.48613  -0.46677
 Alpha virt. eigenvalues --   -0.36795  -0.22683  -0.22365  -0.13951  -0.12156
 Alpha virt. eigenvalues --   -0.11015  -0.09040  -0.07748  -0.06496  -0.05670
 Alpha virt. eigenvalues --   -0.04169  -0.02773  -0.01468   0.00190   0.01311

 Mulliken charges:
               1
     1  C    0.131016
     2  C   -0.118963
     3  C   -0.004780
     4  C    0.088557
     5  C   -0.038748
     6  C   -0.153497
     7  H    0.209655
     8  H    0.207433
     9  N   -0.098323
    10  H    0.194971
    11  H    0.203294
    12  H    0.254122
    13  C    0.328409
    14  O   -0.220525
    15  O   -0.346567
    16  H    0.363947
 Sum of Mulliken charges =   1.00000

 Dipole moment (field-independent basis, Debye):
    X=              3.0362    Y=             -2.7936    Z=              0.0018  Tot=              4.1258
 Quadrupole moment (field-independent basis, Debye-Ang):
   XX=            -27.8528   YY=            -43.6314   ZZ=            -55.0220
   XY=              0.5037   XZ=             -0.0251   YZ=              0.0209

  Exact polarizability: 146.584  -2.778  92.492   0.004   0.011  44.799
 Approx polarizability: 267.736  -7.732 164.513   0.020   0.006  72.124

                      1                      2                      3
                      A                      A                      A
 Frequencies --     16.9856                83.7793               203.4263
 Red. masses --      7.1121                 6.0121                 6.3484
 Frc consts  --      0.0012                 0.0249                 0.1548
 IR Inten    --      0.6653                 0.6523                 0.7801

                      4                      5                      6
                      A                      A                      A
 Frequencies --    222.2129               330.7596               346.6125
 Red. masses --      4.6461                 2.7073                 9.2587
 Frc consts  --      0.1352                 0.1745                 0.6554
 IR Inten    --      1.0780                 3.1432                 8.3594

                      7                      8                      9
                      A                      A                      A
 Frequencies --    400.8563               458.9931               504.7107
 Red. masses --      4.5945                 3.0283                 5.2517
 Frc consts  --      0.4350                 0.3759                 0.7882
 IR Inten    --     11.7113                15.7343                 8.4336

                     10                     11                     12
                      A                      A                      A
 Frequencies --    599.9306               602.6083               614.4062
 Red. masses --      5.6729                 1.4554                 6.9835
 Frc consts  --      1.2030                 0.3114                 1.5532
 IR Inten    --     32.0757                15.2823                 6.6921

                     13                     14                     15
                      A                      A                      A
 Frequencies --    683.3984               729.7989               774.7442
 Red. masses --      2.0336                 4.0490                 1.2051
 Frc consts  --      0.5596                 1.2706                 0.4262
 IR Inten    --    131.9253                38.5946                 8.6705

                     16                     17                     18
                      A                      A                      A
 Frequencies --    815.7412               819.7017               915.6560
 Red. masses --      5.5264                 3.6708                 1.5613
 Frc consts  --      2.1667                 1.4532                 0.7712
 IR Inten    --     15.1332                23.4697                 0.5600

                     19                     20                     21
                      A                      A                      A
 Frequencies --    925.1179               995.6345              1039.5639
 Red. masses --      1.4427                 3.0197                 1.4088
 Frc consts  --      0.7275                 1.7636                 0.8970
 IR Inten    --     82.1160                 0.3320                 2.2381

                     22                     23                     24
                      A                      A                      A
 Frequencies --   1052.7858              1099.5934              1116.0168
 Red. masses --      1.3794                 1.6622                 4.4543
 Frc consts  --      0.9008                 1.1841                 3.2687
 IR Inten    --      2.1580                28.8243                81.6901

                     25                     26                     27
                      A                      A                      A
 Frequencies --   1169.5675              1184.9100              1209.5828
 Red. masses --      1.3179                 1.4851                 1.2652
 Frc consts  --      1.0621                 1.2285                 1.0906
 IR Inten    --    143.6770                93.2312                39.9673

                     28                     29                     30
                      A                      A                      A
 Frequencies --   1331.0785              1376.2768              1415.5263
 Red. masses --      1.4568                 2.6312                 2.8500
 Frc consts  --      1.5208                 2.9365                 3.3646
 IR Inten    --     39.8976               105.6518                12.5835

                     31                     32                     33
                      A                      A                      A
 Frequencies --   1449.2510              1472.5623              1519.9144
 Red. masses --      1.9352                 4.5828                 5.0826
 Frc consts  --      2.3947                 5.8551                 6.9178
 IR Inten    --     20.5633               160.5952                35.5253

                     34                     35                     36
                      A                      A                      A
 Frequencies --   1594.3030              1662.8546              1794.4254
 Red. masses --      6.6312                 5.7473                11.6162
 Frc consts  --      9.9308                 9.3632                22.0376
 IR Inten    --      0.3938               243.8114               202.2589

                     37                     38                     39
                      A                      A                      A
 Frequencies --   3191.5795              3208.1666              3218.8327
 Red. masses --      1.0926                 1.0909                 1.0968
 Frc consts  --      6.5573                 6.6151                 6.6956
 IR Inten    --      3.2114                 9.7020                18.7243

                     40                     41                     42
                      A                      A                      A
 Frequencies --   3226.0158              3406.8995              3697.5053
 Red. masses --      1.0948                 1.0763                 1.0648
 Frc consts  --      6.7129                 7.3601                 8.5770
 IR Inten    --      9.7330                44.8881               219.6255

 - Thermochemistry -
 -------------------
 Temperature   298.150 Kelvin.  Pressure   1.00000 Atm.
 Atom     1 has atomic number  6 and mass  12.00000

 Molecular mass:   136.03985 amu.
 Principal axes and moments of inertia in atomic units:
                           1         2         3
     Eigenvalues --   487.619332147.212782634.82976
           X            1.00000   0.00097  -0.00002
           Y           -0.00097   1.00000   0.00011
           Z            0.00002  -0.00011   1.00000
 This molecule is an asymmetric top.
 Rotational symmetry number  1.
 Warning -- assumption of classical behavior for rotation
           may cause significant error
 Rotational temperatures (Kelvin)      0.17763     0.04034     0.03287
 Rotational constants (GHZ):           3.70113     0.84050     0.68496
 Zero-point vibrational energy     313913.8 (Joules/Mol)
                                   75.02719 (Kcal/Mol)
 Warning -- explicit consideration of  12 degrees of freedom as
           vibrations may cause significant error
 Vibrational temperatures:     24.44   120.54   292.69   319.71   475.89
          (Kelvin)            498.70   576.74   660.39   726.17   863.17
                              867.02   883.99   983.26  1050.02  1114.68
                             1173.67  1179.37  1317.42  1331.04  1432.50
                             1495.70  1514.72  1582.07  1605.70  1682.75
                             1704.82  1740.32  1915.13  1980.16  2036.63
                             2085.15  2118.69  2186.82  2293.85  2392.48
                             2581.78  4591.97  4615.84  4631.18  4641.52
                             4901.77  5319.89

 Zero-point correction=                           0.119563 (Hartree/Particle)
 Thermal correction to Energy=                    0.127957
 Thermal correction to Enthalpy=                  0.128901
 Thermal correction to Gibbs Free Energy=         0.084684
 Sum of electronic and zero-point Energies=           -475.300379
 Sum of electronic and thermal Energies=              -475.291986
 Sum of electronic and thermal Enthalpies=            -475.291041
 Sum of electronic and thermal Free Energies=         -475.335259

                     E (Thermal)             CV                S
                      KCal/Mol        Cal/Mol-Kelvin    Cal/Mol-Kelvin
 Total                   80.294             31.311             93.063
 Electronic               0.000              0.000              0.000
 Translational            0.889              2.981             40.635
 Rotational               0.889              2.981             29.402
 Vibrational             78.517             25.350             23.026
 Vibration     1          0.593              1.986              6.959
 Vibration     2          0.601              1.960              3.800
 Vibration     3          0.639              1.835              2.102
 Vibration     4          0.648              1.807              1.941
 Vibration     5          0.713              1.614              1.256
 Vibration     6          0.725              1.582              1.182
 Vibration     7          0.767              1.468              0.960
 Vibration     8          0.817              1.341              0.769
 Vibration     9          0.860              1.240              0.646
 Vibration    10          0.958              1.032              0.450
 Vibration    11          0.961              1.026              0.445
 Vibration    12          0.974              1.001              0.426

                           ! Non-Optimized Parameters !

 1\1\GINC-N11\Freq\RB3LYP\def2TZVP\C7H6N1O2(1+)\UNKNOWN\20-Jan-2025\0\\
 #N Geom=AllCheck Guess=TCheck SCRF=Check GenChk RB3LYP/def2TZVP Freq\\
 opt\\1,1\C,-0.0312185194,-1.783625685,0.0080311867\C,1.214442881,-1.12
 26676378,0.0051403927\C,1.2451923279,0.2410256352,-0.0076855629\C,-0.0
 003100832,1.0000754651,-0.0182381851\C,-1.2661612339,0.2743247772,-0.0
 137119641\C,-1.267324227,-1.0862763467,-0.0010175989\H,2.1162552546,-1
 .7195898932,0.0133293023\H,2.1687451151,0.8058522355,-0.0107132266\N,0
 .1056245737,2.2842048282,-0.0302976372\H,-2.1900605015,0.8406176446,-0

 Normal termination of Gaussian 16 at Mon Jan 20 12:44:25 2025.
