 Gaussian 16, Revision A.03,
 Gaussian 16:  ES64L-G16RevA.03 25-Dec-2016

 -------------------------
 # opt freq b3lyp def2tzvp
 -------------------------

 ---
 opt
 ---
 Symbolic Z-matrix:
 Charge = -1 Multiplicity = 1

 SCF Done:  E(RB3LYP) =  -475.774413638     A.U. after   17 cycles
 SCF Done:  E(RB3LYP) =  -475.799484050     A.U. after   14 cycles
 SCF Done:  E(RB3LYP) =  -475.805832281     A.U. after   14 cycles
 SCF Done:  E(RB3LYP) =  -475.805973246     A.U. after   14 cycles
 SCF Done:  E(RB3LYP) =  -475.803653219     A.U. after   14 cycles
 SCF Done:  E(RB3LYP) =  -475.806138001     A.U. after   14 cycles
 SCF Done:  E(RB3LYP) =  -475.806410658     A.U. after   14 cycles
 SCF Done:  E(RB3LYP) =  -475.806411875     A.U. after    9 cycles
 SCF Done:  E(RB3LYP) =  -475.806411926     A.U. after    8 cycles
 SCF Done:  E(RB3LYP) =  -475.806412063     A.U. after    8 cycles
 Optimization completed.
    -- Stationary point found.

 1\1\GINC-N12\FOpt\RB3LYP\def2TZVP\C7H6N1O2(1-)\UNKNOWN\23-Jan-2025\0\\
 # opt freq b3lyp def2tzvp\\opt\\-1,1\C,-0.0299319149,-1.8446571403,0.0
 088065878\C,1.1897112821,-1.1130295196,0.0035577667\C,1.2198793871,0.2
 501716301,-0.0093825374\C,0.014469988,1.0557687276,-0.0187241288\C,-1.
 2140257126,0.2830119982,-0.013122533\C,-1.2271258224,-1.0838498119,-0.
 0001360126\H,2.1149339995,-1.6781134217,0.0102346818\H,2.1637577734,0.
 7839941069,-0.0131520505\N,0.0954325154,2.3668216556,-0.0311579971\H,-
 2.1530323971,0.830815249,-0.0196550244\H,-2.1752906557,-1.6085078618,0

 Normal termination of Gaussian 16 at Thu Jan 23 10:15:09 2025.

 --------------------------------------------------------------------
 #N Geom=AllCheck Guess=TCheck SCRF=Check GenChk RB3LYP/def2TZVP Freq
 --------------------------------------------------------------------

 Structure from the checkpoint file:  "C6H5NH-.chk"
 ---
 opt
 ---
 Charge = -1 Multiplicity = 1

                         Standard orientation:
 ---------------------------------------------------------------------
 Center     Atomic      Atomic             Coordinates (Angstroms)
 Number     Number       Type             X           Y           Z
 ---------------------------------------------------------------------
      1          6           0       -0.651631    0.044341   -0.000014
      2          6           0        0.116045    1.241634   -0.000035
      3          6           0        1.479601    1.231150   -0.000030
      4          6           0        2.248960    0.002259   -0.000033
      5          6           0        1.439907   -1.202656    0.000014
      6          6           0        0.073200   -1.175003    0.000022
      7          1           0       -0.421245    2.183292   -0.000046
      8          1           0        2.041335    2.158696   -0.000030
      9          7           0        3.561903    0.044101    0.000032
     10          1           0        1.959513   -2.157578    0.000026
     11          1           0       -0.479500   -2.107107    0.000038
     12          1           0        3.921304   -0.912594    0.000072
     13          6           0       -2.079726    0.112071   -0.000011
     14          8           0       -2.791721    1.114419    0.000077
     15          8           0       -2.715750   -1.127602   -0.000044
     16          1           0       -3.653100   -0.890720   -0.000027
 ---------------------------------------------------------------------

 SCF Done:  E(RB3LYP) =  -475.806412063     A.U. after    1 cycles

 The electronic state is 1-A.
 Alpha  occ. eigenvalues --  -19.01848 -18.95109 -14.10222 -10.14086 -10.04532
 Alpha  occ. eigenvalues --  -10.02719 -10.02230 -10.01106 -10.00989 -10.00473
 Alpha  occ. eigenvalues --   -0.94533  -0.85012  -0.72589  -0.67398  -0.59308
 Alpha  occ. eigenvalues --   -0.57553  -0.48050  -0.44704  -0.42083  -0.36960
 Alpha  occ. eigenvalues --   -0.33702  -0.32175  -0.29343  -0.29226  -0.28529
 Alpha  occ. eigenvalues --   -0.26863  -0.25048  -0.22802  -0.21952  -0.18351
 Alpha  occ. eigenvalues --   -0.17509  -0.14070  -0.13006  -0.10826  -0.09529
 Alpha  occ. eigenvalues --   -0.02396
 Alpha virt. eigenvalues --    0.12317   0.14708   0.15952   0.18427   0.20722
 Alpha virt. eigenvalues --    0.21692   0.22513   0.24731   0.25738   0.26518
 Alpha virt. eigenvalues --    0.29290   0.30593   0.32518   0.33996   0.34102

 Mulliken charges:
               1
     1  C    0.005647
     2  C   -0.170061
     3  C   -0.163135
     4  C    0.108221
     5  C   -0.217890
     6  C   -0.193472
     7  H    0.076568
     8  H    0.027845
     9  N   -0.428301
    10  H    0.035703
    11  H    0.074615
    12  H    0.133211
    13  C    0.303392
    14  O   -0.434146
    15  O   -0.432486
    16  H    0.274290
 Sum of Mulliken charges =  -1.00000

 Dipole moment (field-independent basis, Debye):
    X=             -3.5167    Y=             -2.5378    Z=             -0.0001  Tot=              4.3368
 Quadrupole moment (field-independent basis, Debye-Ang):
   XX=            -97.6757   YY=            -65.5402   ZZ=            -64.1292
   XY=              0.4696   XZ=              0.0004   YZ=             -0.0005

  Exact polarizability: 193.039  -4.958 101.684   0.000  -0.000  55.504
 Approx polarizability: 353.171 -15.882 162.779   0.001  -0.000  88.672

                      1                      2                      3
                      A                      A                      A
 Frequencies --     94.5705               101.2150               191.8717
 Red. masses --      6.1913                 7.1221                 6.5484
 Frc consts  --      0.0326                 0.0430                 0.1420
 IR Inten    --      1.3064                 0.1245                 0.8435

                      4                      5                      6
                      A                      A                      A
 Frequencies --    237.0404               355.6066               419.0808
 Red. masses --      5.1629                 9.1974                 4.4154
 Frc consts  --      0.1709                 0.6853                 0.4569
 IR Inten    --      2.8152                 1.5854                 9.9878

                      7                      8                      9
                      A                      A                      A
 Frequencies --    429.4955               470.3469               510.9081
 Red. masses --      3.1418                 1.9581                 1.2474
 Frc consts  --      0.3415                 0.2552                 0.1918
 IR Inten    --      0.9337                52.8097                35.0827

                     10                     11                     12
                      A                      A                      A
 Frequencies --    512.3567               593.9621               640.7877
 Red. masses --      5.5882                 5.6145                 7.2223
 Frc consts  --      0.8643                 1.1670                 1.7472
 IR Inten    --     20.0521                74.4079                 3.2127

                     13                     14                     15
                      A                      A                      A
 Frequencies --    709.7440               723.7591               729.0397
 Red. masses --      3.0245                 1.1254                 4.6867
 Frc consts  --      0.8977                 0.3473                 1.4676
 IR Inten    --     27.9681                17.6621                12.1138

                     16                     17                     18
                      A                      A                      A
 Frequencies --    772.9499               817.0907               818.3439
 Red. masses --      7.1504                 1.4234                 5.4842
 Frc consts  --      2.5170                 0.5599                 2.1639
 IR Inten    --     20.3447                41.4321                 3.9546

                     19                     20                     21
                      A                      A                      A
 Frequencies --    844.2106               931.9845               976.4665
 Red. masses --      1.9761                 1.2692                 1.2668
 Frc consts  --      0.8298                 0.6495                 0.7116
 IR Inten    --     23.1697                 0.8496                 0.1581

                     22                     23                     24
                      A                      A                      A
 Frequencies --    995.0333              1029.7932              1099.3829
 Red. masses --      3.2545                 4.5262                 1.6347
 Frc consts  --      1.8985                 2.8280                 1.1641
 IR Inten    --      9.8413               291.8880                41.8780

                     25                     26                     27
                      A                      A                      A
 Frequencies --   1170.9637              1185.8161              1223.2335
 Red. masses --      1.2360                 1.1990                 1.4727
 Frc consts  --      0.9985                 0.9933                 1.2983
 IR Inten    --    458.1426                 0.3350               125.2969

                     28                     29                     30
                      A                      A                      A
 Frequencies --   1321.0573              1345.0321              1379.5572
 Red. masses --      1.6030                 2.5665                 2.4157
 Frc consts  --      1.6483                 2.7356                 2.7088
 IR Inten    --     18.7231               116.2571                33.5930

                     31                     32                     33
                      A                      A                      A
 Frequencies --   1425.0283              1499.0263              1530.3556
 Red. masses --      3.0062                 4.8911                 4.9853
 Frc consts  --      3.5968                 6.4755                 6.8790
 IR Inten    --    167.0045               106.9831                33.6963

                     34                     35                     36
                      A                      A                      A
 Frequencies --   1556.0611              1642.1945              1707.2336
 Red. masses --      4.3263                 5.9223                 7.3062
 Frc consts  --      6.1719                 9.4100                12.5466
 IR Inten    --     97.4652               841.3577               608.8123

                     37                     38                     39
                      A                      A                      A
 Frequencies --   3115.3169              3147.8853              3167.6347
 Red. masses --      1.0865                 1.0853                 1.0912
 Frc consts  --      6.2129                 6.3361                 6.4511
 IR Inten    --     39.4295                11.4753                52.2861

                     40                     41                     42
                      A                      A                      A
 Frequencies --   3170.7902              3382.6230              3758.1598
 Red. masses --      1.0929                 1.0722                 1.0640
 Frc consts  --      6.4739                 7.2286                 8.8541
 IR Inten    --      6.8596                33.7240                48.7768

 - Thermochemistry -
 -------------------
 Temperature   298.150 Kelvin.  Pressure   1.00000 Atm.
 Atom     1 has atomic number  6 and mass  12.00000

 Molecular mass:   136.03985 amu.
 Principal axes and moments of inertia in atomic units:
                           1         2         3
     Eigenvalues --   468.881822237.990932706.87274
           X            1.00000  -0.00020   0.00000
           Y            0.00020   1.00000  -0.00000
           Z           -0.00000   0.00000   1.00000
 This molecule is an asymmetric top.
 Rotational symmetry number  1.
 Warning -- assumption of classical behavior for rotation
           may cause significant error
 Rotational temperatures (Kelvin)      0.18472     0.03870     0.03200
 Rotational constants (GHZ):           3.84903     0.80641     0.66673
 Zero-point vibrational energy     309432.1 (Joules/Mol)
                                   73.95605 (Kcal/Mol)
 Warning -- explicit consideration of  11 degrees of freedom as
           vibrations may cause significant error
 Vibrational temperatures:    136.07   145.63   276.06   341.05   511.64
          (Kelvin)            602.96   617.95   676.72   735.08   737.17
                              854.58   921.95  1021.16  1041.33  1048.93
                             1112.10  1175.61  1177.41  1214.63  1340.92
                             1404.92  1431.63  1481.64  1581.77  1684.76
                             1706.12  1759.96  1900.71  1935.20  1984.88
                             2050.30  2156.76  2201.84  2238.82  2362.75
                             2456.33  4482.25  4529.10  4557.52  4562.06
                             4866.84  5407.15

 Zero-point correction=                           0.117856 (Hartree/Particle)
 Thermal correction to Energy=                    0.126055
 Thermal correction to Enthalpy=                  0.126999
 Thermal correction to Gibbs Free Energy=         0.084621
 Sum of electronic and zero-point Energies=           -475.688556
 Sum of electronic and thermal Energies=              -475.680357
 Sum of electronic and thermal Enthalpies=            -475.679413
 Sum of electronic and thermal Free Energies=         -475.721791

                     E (Thermal)             CV                S
                      KCal/Mol        Cal/Mol-Kelvin    Cal/Mol-Kelvin
 Total                   79.101             31.804             89.192
 Electronic               0.000              0.000              0.000
 Translational            0.889              2.981             40.635
 Rotational               0.889              2.981             29.431
 Vibrational             77.323             25.842             19.126
 Vibration     1          0.603              1.953              3.563
 Vibration     2          0.604              1.948              3.431
 Vibration     3          0.634              1.851              2.210
 Vibration     4          0.656              1.784              1.825
 Vibration     5          0.731              1.564              1.141
 Vibration     6          0.782              1.429              0.895
 Vibration     7          0.791              1.406              0.860
 Vibration     8          0.827              1.316              0.737
 Vibration     9          0.866              1.226              0.631
 Vibration    10          0.867              1.223              0.628
 Vibration    11          0.952              1.045              0.460

 Optimization completed.
    -- Stationary point found.

 1\1\GINC-N12\Freq\RB3LYP\def2TZVP\C7H6N1O2(1-)\UNKNOWN\23-Jan-2025\0\\
 #N Geom=AllCheck Guess=TCheck SCRF=Check GenChk RB3LYP/def2TZVP Freq\\
 opt\\-1,1\C,-0.0299319149,-1.8446571403,0.0088065878\C,1.1897112821,-1
 .1130295196,0.0035577667\C,1.2198793871,0.2501716301,-0.0093825374\C,0
 .014469988,1.0557687276,-0.0187241288\C,-1.2140257126,0.2830119982,-0.
 013122533\C,-1.2271258224,-1.0838498119,-0.0001360126\H,2.1149339995,-
 1.6781134217,0.0102346818\H,2.1637577734,0.7839941069,-0.0131520505\N,
 0.0954325154,2.3668216556,-0.0311579971\H,-2.1530323971,0.830815249,-0

 Normal termination of Gaussian 16 at Thu Jan 23 10:38:39 2025.
