 Gaussian 16, Revision A.03,
 Gaussian 16:  ES64L-G16RevA.03 25-Dec-2016

 ----------------------------------------
 #P B3LYP/def2tzvp nosymm Density=Current
 ----------------------------------------

 ------------
 Single-Point
 ------------
 Symbolic Z-matrix:
 Charge = -1 Multiplicity = 1

                          Input orientation:
 ---------------------------------------------------------------------
 Center     Atomic      Atomic             Coordinates (Angstroms)
 Number     Number       Type             X           Y           Z
 ---------------------------------------------------------------------
      1          6           0       -1.891370    0.000000    0.008888
      2          6           0       -1.178556    1.196707    0.010046
      3          6           0        0.213762    1.186154    0.010046
      4          6           0        0.971866    0.000000    0.004252
      5          6           0        0.213762   -1.186154    0.010046
      6          6           0       -1.178556   -1.196707    0.010046
      7          1           0       -2.976484    0.000000    0.012741
      8          1           0       -1.713310    2.142907    0.015098
      9          1           0        0.745723    2.133212    0.017815
     10          1           0        0.745723   -2.133212    0.017815
     11          1           0       -1.713310   -2.142907    0.015098
     12          5           0        2.592641    0.000000   -0.038454
     13          1           0        3.041081    1.009317    0.505481
     14          1           0        3.041081   -1.009317    0.505481
     15          1           0        2.960844    0.000000   -1.217213
 ---------------------------------------------------------------------

 SCF Done:  E(RB3LYP) =  -258.435154155     A.U. after   14 cycles

 Alpha  occ. eigenvalues --  -10.02558 -10.02533 -10.02474 -10.00839 -10.00838
 Alpha  occ. eigenvalues --   -9.98828  -6.46886  -0.69481  -0.58871  -0.58219
 Alpha  occ. eigenvalues --   -0.44409  -0.44251  -0.36907  -0.30720  -0.28906
 Alpha  occ. eigenvalues --   -0.28341  -0.26625  -0.22319  -0.21549  -0.18103
 Alpha  occ. eigenvalues --   -0.12351  -0.10944  -0.10319  -0.09167  -0.06367
 Alpha virt. eigenvalues --    0.14120   0.14729   0.17096   0.19751   0.21073
 Alpha virt. eigenvalues --    0.22351   0.23908   0.24600   0.24732   0.26397
 Alpha virt. eigenvalues --    0.29053   0.29646   0.30990   0.32774   0.34132

 Mulliken charges:
               1
     1  C   -0.103585
     2  C   -0.116603
     3  C   -0.156128
     4  C    0.072671
     5  C   -0.156128
     6  C   -0.116603
     7  H    0.046341
     8  H    0.043213
     9  H    0.064388
    10  H    0.064388
    11  H    0.043213
    12  B   -0.279317
    13  H   -0.142791
    14  H   -0.142791
    15  H   -0.120269
 Sum of Mulliken charges =  -1.00000

 Dipole moment (field-independent basis, Debye):
    X=             -8.4352    Y=             -0.0000    Z=              0.1408  Tot=              8.4364
 Quadrupole moment (field-independent basis, Debye-Ang):
   XX=            -79.5915   YY=            -49.5422   ZZ=            -53.1414
   XY=             -0.0000   XZ=              0.4158   YZ=              0.0000

 Normal termination of Gaussian 16 at Tue Jan 14 15:02:12 2025.
