 Gaussian 16, Revision A.03,
 Gaussian 16:  ES64L-G16RevA.03 25-Dec-2016

 ----------------------------------------
 #P B3LYP/def2tzvp nosymm Density=Current
 ----------------------------------------

 ------------
 Single-Point
 ------------
 Symbolic Z-matrix:
 Charge =  0 Multiplicity = 1

                          Input orientation:
 ---------------------------------------------------------------------
 Center     Atomic      Atomic             Coordinates (Angstroms)
 Number     Number       Type             X           Y           Z
 ---------------------------------------------------------------------
      1          6           0        1.204672    0.695514    0.000000
      2          6           0        0.000000    1.391026    0.000000
      3          6           0       -1.204672    0.695514    0.000000
      4          6           0       -1.204672   -0.695514    0.000000
      5          6           0        0.000000   -1.391026    0.000000
      6          6           0        1.204672   -0.695514    0.000000
      7          1           0        2.142538    1.237000    0.000000
      8          1           0        0.000000    2.473984    0.000000
      9          1           0       -2.142538    1.237000    0.000000
     10          1           0       -2.142538   -1.237000    0.000000
     11          1           0        0.000000   -2.473984    0.000000
     12          1           0        2.142538   -1.237000    0.000000
 ---------------------------------------------------------------------

 SCF Done:  E(RB3LYP) =  -232.337355132     A.U. after   10 cycles

 Alpha  occ. eigenvalues --  -10.17695 -10.17671 -10.17671 -10.17613 -10.17613
 Alpha  occ. eigenvalues --  -10.17585  -0.85833  -0.74953  -0.74953  -0.60635
 Alpha  occ. eigenvalues --   -0.60635  -0.52860  -0.46432  -0.45161  -0.42598
 Alpha  occ. eigenvalues --   -0.42598  -0.37324  -0.34867  -0.34867  -0.25934
 Alpha  occ. eigenvalues --   -0.25934
 Alpha virt. eigenvalues --   -0.01438  -0.01438   0.04468   0.07651   0.07651
 Alpha virt. eigenvalues --    0.10354   0.10354   0.12629   0.14007   0.14882
 Alpha virt. eigenvalues --    0.20534   0.20869   0.21451   0.21451   0.23199

 Mulliken charges:
               1
     1  C   -0.108862
     2  C   -0.108861
     3  C   -0.108862
     4  C   -0.108862
     5  C   -0.108861
     6  C   -0.108862
     7  H    0.108862
     8  H    0.108861
     9  H    0.108862
    10  H    0.108862
    11  H    0.108861
    12  H    0.108862
 Sum of Mulliken charges =  -0.00000

 Dipole moment (field-independent basis, Debye):
    X=              0.0000    Y=              0.0000    Z=              0.0000  Tot=              0.0000
 Quadrupole moment (field-independent basis, Debye-Ang):
   XX=            -32.1315   YY=            -32.1316   ZZ=            -39.8546
   XY=              0.0000   XZ=             -0.0000   YZ=              0.0000

 Normal termination of Gaussian 16 at Tue Jan 14 13:27:10 2025.
