 Gaussian 16, Revision A.03,
 Gaussian 16:  ES64L-G16RevA.03 25-Dec-2016

 ----------------------------------------------
 # opt=(tight,modredundant) freq b3lyp def2tzvp
 ----------------------------------------------

 ---
 opt
 ---
 Symbolic Z-matrix:
 Charge = -1 Multiplicity = 1

 SCF Done:  E(RB3LYP) =  -459.648430916     A.U. after   23 cycles
 SCF Done:  E(RB3LYP) =  -459.681730653     A.U. after   16 cycles
 SCF Done:  E(RB3LYP) =  -459.718363801     A.U. after   17 cycles
 SCF Done:  E(RB3LYP) =  -459.735794476     A.U. after   14 cycles
 SCF Done:  E(RB3LYP) =  -459.735380695     A.U. after   14 cycles
 SCF Done:  E(RB3LYP) =  -459.735061113     A.U. after   13 cycles
 SCF Done:  E(RB3LYP) =  -459.733363419     A.U. after   13 cycles
 SCF Done:  E(RB3LYP) =  -459.736835879     A.U. after   11 cycles
 SCF Done:  E(RB3LYP) =  -459.738279294     A.U. after   13 cycles
 SCF Done:  E(RB3LYP) =  -459.738173151     A.U. after   12 cycles
 SCF Done:  E(RB3LYP) =  -459.738279820     A.U. after   12 cycles
 SCF Done:  E(RB3LYP) =  -459.738316182     A.U. after   11 cycles
 SCF Done:  E(RB3LYP) =  -459.738318220     A.U. after    8 cycles
 SCF Done:  E(RB3LYP) =  -459.738318239     A.U. after    7 cycles
 SCF Done:  E(RB3LYP) =  -459.738318270     A.U. after    7 cycles
 SCF Done:  E(RB3LYP) =  -459.738318279     A.U. after    6 cycles
 SCF Done:  E(RB3LYP) =  -459.738318279     A.U. after    4 cycles
 Optimization completed.
    -- Stationary point found.
 Normal termination of Gaussian 16 at Wed Jan 22 13:57:16 2025.

 --------------------------------------------------------------------
 #N Geom=AllCheck Guess=TCheck SCRF=Check GenChk RB3LYP/def2TZVP Freq
 --------------------------------------------------------------------

 Structure from the checkpoint file:  "C6H5CH2-o.chk"
 ---
 opt
 ---
 Charge = -1 Multiplicity = 1

                         Standard orientation:
 ---------------------------------------------------------------------
 Center     Atomic      Atomic             Coordinates (Angstroms)
 Number     Number       Type             X           Y           Z
 ---------------------------------------------------------------------
      1          6           0        0.672052    0.043119   -0.000006
      2          6           0       -0.107167    1.235508   -0.000010
      3          6           0       -1.469169    1.214729   -0.000013
      4          6           0       -2.232601   -0.019241   -0.000003
      5          6           0       -1.416724   -1.218461   -0.000015
      6          6           0       -0.053666   -1.182448   -0.000015
      7          1           0        0.422146    2.181753   -0.000014
      8          1           0       -2.019598    2.151046   -0.000020
      9          1           0       -1.926114   -2.177722   -0.000023
     10          1           0        0.502523   -2.112374   -0.000025
     11          6           0       -3.602632   -0.048586    0.000029
     12          1           0       -4.146094   -0.985901    0.000035
     13          1           0       -4.185380    0.864777    0.000037
     14          6           0        2.093703    0.120357    0.000006
     15          8           0        2.805181    1.127474    0.000007
     16          8           0        2.741590   -1.117818    0.000014
     17          1           0        3.675574   -0.868691    0.000011
 ---------------------------------------------------------------------

 SCF Done:  E(RB3LYP) =  -459.738318279     A.U. after    1 cycles

 The electronic state is 1-A.
 Alpha  occ. eigenvalues --  -19.00858 -18.94006 -10.12929 -10.02395 -10.01902
 Alpha  occ. eigenvalues --  -10.01687 -10.00586 -10.00564 -10.00199  -9.98163
 Alpha  occ. eigenvalues --   -0.93389  -0.83831  -0.69244  -0.61632  -0.58795
 Alpha  occ. eigenvalues --   -0.53571  -0.45876  -0.44043  -0.41036  -0.36015
 Alpha  occ. eigenvalues --   -0.33061  -0.30525  -0.29942  -0.28276  -0.27700
 Alpha  occ. eigenvalues --   -0.26234  -0.24355  -0.22566  -0.21225  -0.20874
 Alpha  occ. eigenvalues --   -0.16793  -0.16450  -0.11989  -0.11981  -0.10380
 Alpha  occ. eigenvalues --   -0.00391
 Alpha virt. eigenvalues --    0.13001   0.15212   0.16658   0.19145   0.20520
 Alpha virt. eigenvalues --    0.21712   0.22176   0.24346   0.25241   0.26605
 Alpha virt. eigenvalues --    0.27506   0.30029   0.30172   0.31186   0.33447

 Mulliken charges:
               1
     1  C   -0.013687
     2  C   -0.180055
     3  C   -0.190200
     4  C    0.239254
     5  C   -0.203899
     6  C   -0.182854
     7  H    0.072496
     8  H    0.031585
     9  H    0.030095
    10  H    0.067916
    11  C   -0.444337
    12  H    0.044997
    13  H    0.045608
    14  C    0.299500
    15  O   -0.449203
    16  O   -0.437992
    17  H    0.270776
 Sum of Mulliken charges =  -1.00000

 Dipole moment (field-independent basis, Debye):
    X=              1.5401    Y=             -1.3316    Z=             -0.0000  Tot=              2.0359
 Quadrupole moment (field-independent basis, Debye-Ang):
   XX=            -92.2739   YY=            -67.0036   ZZ=            -66.4454
   XY=             -6.0725   XZ=              0.0000   YZ=              0.0000

  Exact polarizability: 227.477   4.228 103.419  -0.001   0.000  60.330
 Approx polarizability: 426.943  17.980 163.954  -0.001   0.000  96.085

                      1                      2                      3
                      A                      A                      A
 Frequencies --     91.8641               105.9620               188.0771
 Red. masses --      4.5510                 7.0448                 5.5772
 Frc consts  --      0.0226                 0.0466                 0.1162
 IR Inten    --      0.1612                 0.4337                 1.4041

                      4                      5                      6
                      A                      A                      A
 Frequencies --    230.8828               354.3921               363.8164
 Red. masses --      4.6669                 6.4735                 2.8285
 Frc consts  --      0.1466                 0.4790                 0.2206
 IR Inten    --      1.1743                 2.1612                 0.5258

                      7                      8                      9
                      A                      A                      A
 Frequencies --    426.5442               451.1277               496.7580
 Red. masses --      2.8746                 2.0086                 1.1924
 Frc consts  --      0.3081                 0.2408                 0.1734
 IR Inten    --      8.4488                65.0819                31.5839

                     10                     11                     12
                      A                      A                      A
 Frequencies --    507.0338               589.0372               603.5693
 Red. masses --      6.0616                 5.4068                 1.0494
 Frc consts  --      0.9181                 1.1053                 0.2252
 IR Inten    --     17.6231                76.9916                 0.0192

                     13                     14                     15
                      A                      A                      A
 Frequencies --    614.6410               642.7285               702.9757
 Red. masses --      1.3787                 7.1257                 3.6942
 Frc consts  --      0.3069                 1.7343                 1.0756
 IR Inten    --     70.4262                 1.8404                 8.7864

                     16                     17                     18
                      A                      A                      A
 Frequencies --    723.6764               763.6219               788.6631
 Red. masses --      4.5890                 7.6079                 1.3686
 Frc consts  --      1.4160                 2.6138                 0.5015
 IR Inten    --     20.6837                41.0442                 5.7957

                     19                     20                     21
                      A                      A                      A
 Frequencies --    797.6150               812.6599               925.4836
 Red. masses --      1.8058                 4.9998                 1.2561
 Frc consts  --      0.6769                 1.9455                 0.6339
 IR Inten    --     16.5428                 2.7032                 0.1000

                     22                     23                     24
                      A                      A                      A
 Frequencies --    952.8615               961.7184               993.6888
 Red. masses --      1.2379                 1.5553                 3.3296
 Frc consts  --      0.6622                 0.8475                 1.9370
 IR Inten    --      1.8384                16.1687                26.8361

                     25                     26                     27
                      A                      A                      A
 Frequencies --   1026.3288              1140.8477              1177.4280
 Red. masses --      4.3670                 1.2684                 1.2256
 Frc consts  --      2.7103                 0.9726                 1.0011
 IR Inten    --    318.5891                 2.9026               482.8838

                     28                     29                     30
                      A                      A                      A
 Frequencies --   1227.5641              1314.9502              1327.9236
 Red. masses --      1.4051                 1.4797                 3.1582
 Frc consts  --      1.2475                 1.5074                 3.2812
 IR Inten    --    100.7032                 4.8010                 3.4592

                     31                     32                     33
                      A                      A                      A
 Frequencies --   1348.1788              1368.2449              1483.3750
 Red. masses --      2.5486                 2.1451                 2.0079
 Frc consts  --      2.7292                 2.3661                 2.6031
 IR Inten    --     87.4936               165.6350                 0.2408

                     34                     35                     36
                      A                      A                      A
 Frequencies --   1487.2765              1532.1179              1569.2713
 Red. masses --      2.6468                 5.7574                 3.3530
 Frc consts  --      3.4495                 7.9627                 4.8649
 IR Inten    --     85.9850                21.4101               110.2160

                     37                     38                     39
                      A                      A                      A
 Frequencies --   1647.9071              1698.5178              3119.6688
 Red. masses --      5.9551                 7.0196                 1.0627
 Frc consts  --      9.5281                11.9317                 6.0938
 IR Inten    --   1051.6038               659.2024                 2.4521

                     40                     41                     42
                      A                      A                      A
 Frequencies --   3123.5459              3127.9503              3164.9437
 Red. masses --      1.0861                 1.0771                 1.0914
 Frc consts  --      6.2432                 6.2091                 6.4411
 IR Inten    --     42.9481                38.6885                39.8480

                     43                     44                     45
                      A                      A                      A
 Frequencies --   3170.3161              3195.4863              3759.4361
 Red. masses --      1.0914                 1.1149                 1.0640
 Frc consts  --      6.4629                 6.7072                 8.8601
 IR Inten    --     16.2326                45.5026                49.7152

 - Thermochemistry -
 -------------------
 Temperature   298.150 Kelvin.  Pressure   1.00000 Atm.
 Atom     1 has atomic number  6 and mass  12.00000

 Molecular mass:   135.04460 amu.
 Principal axes and moments of inertia in atomic units:
                           1         2         3
     Eigenvalues --   472.712552236.559952709.27250
           X            0.99998  -0.00595  -0.00000
           Y            0.00595   0.99998   0.00000
           Z            0.00000  -0.00000   1.00000
 This molecule is an asymmetric top.
 Rotational symmetry number  1.
 Warning -- assumption of classical behavior for rotation
           may cause significant error
 Rotational temperatures (Kelvin)      0.18323     0.03873     0.03197
 Rotational constants (GHZ):           3.81784     0.80693     0.66613
 Zero-point vibrational energy     335556.6 (Joules/Mol)
                                   80.19994 (Kcal/Mol)
 Warning -- explicit consideration of  13 degrees of freedom as
           vibrations may cause significant error
 Vibrational temperatures:    132.17   152.46   270.60   332.19   509.89
          (Kelvin)            523.45   613.70   649.07   714.72   729.51
                              847.49   868.40   884.33   924.74  1011.43
                             1041.21  1098.68  1134.71  1147.59  1169.24
                             1331.56  1370.96  1383.70  1429.70  1476.66
                             1641.43  1694.06  1766.19  1891.92  1910.59
                             1939.73  1968.60  2134.25  2139.86  2204.38
                             2257.83  2370.97  2443.79  4488.51  4494.09
                             4500.42  4553.65  4561.38  4597.59  5408.99

 Zero-point correction=                           0.127807 (Hartree/Particle)
 Thermal correction to Energy=                    0.136379
 Thermal correction to Enthalpy=                  0.137323
 Thermal correction to Gibbs Free Energy=         0.094405
 Sum of electronic and zero-point Energies=           -459.610512
 Sum of electronic and thermal Energies=              -459.601939
 Sum of electronic and thermal Enthalpies=            -459.600995
 Sum of electronic and thermal Free Energies=         -459.643914

                     E (Thermal)             CV                S
                      KCal/Mol        Cal/Mol-Kelvin    Cal/Mol-Kelvin
 Total                   85.579             33.776             90.330
 Electronic               0.000              0.000              0.000
 Translational            0.889              2.981             40.614
 Rotational               0.889              2.981             29.439
 Vibrational             83.802             27.815             20.277
 Vibration     1          0.602              1.955              3.620
 Vibration     2          0.605              1.944              3.342
 Vibration     3          0.633              1.856              2.247
 Vibration     4          0.653              1.794              1.872
 Vibration     5          0.730              1.566              1.147
 Vibration     6          0.737              1.547              1.106
 Vibration     7          0.788              1.412              0.870
 Vibration     8          0.810              1.358              0.792
 Vibration     9          0.852              1.257              0.666
 Vibration    10          0.862              1.234              0.641
 Vibration    11          0.946              1.055              0.469
 Vibration    12          0.962              1.024              0.444
 Vibration    13          0.974              1.001              0.425

 Optimization completed.
    -- Stationary point found.
 Normal termination of Gaussian 16 at Wed Jan 22 14:23:16 2025.
