 Gaussian 16, Revision A.03,
 Gaussian 16:  ES64L-G16RevA.03 25-Dec-2016

 ---------------------------------------
 #P CCSD/def2tzvp nosymm Density=Current
 ---------------------------------------

 ------------
 Single-Point
 ------------
 Symbolic Z-matrix:
 Charge =  0 Multiplicity = 1

                          Input orientation:
 ---------------------------------------------------------------------
 Center     Atomic      Atomic             Coordinates (Angstroms)
 Number     Number       Type             X           Y           Z
 ---------------------------------------------------------------------
      1          6           0        1.204672    0.695514    0.000000
      2          6           0        0.000000    1.391026    0.000000
      3          6           0       -1.204672    0.695514    0.000000
      4          6           0       -1.204672   -0.695514    0.000000
      5          6           0        0.000000   -1.391026    0.000000
      6          6           0        1.204672   -0.695514    0.000000
      7          1           0        2.142538    1.237000    0.000000
      8          1           0        0.000000    2.473984    0.000000
      9          1           0       -2.142538    1.237000    0.000000
     10          1           0       -2.142538   -1.237000    0.000000
     11          1           0        0.000000   -2.473984    0.000000
     12          1           0        2.142538   -1.237000    0.000000
 ---------------------------------------------------------------------

 SCF Done:  E(RHF) =  -230.784432295     A.U. after   12 cycles
 E2 =    -0.9311157448D+00 EUMP2 =    -0.23171554803980D+03

 Alpha  occ. eigenvalues --  -11.23330 -11.23271 -11.23271 -11.23145 -11.23145
 Alpha  occ. eigenvalues --  -11.23084  -1.15066  -1.01427  -1.01427  -0.82329
 Alpha  occ. eigenvalues --   -0.82329  -0.70936  -0.64208  -0.61964  -0.58737
 Alpha  occ. eigenvalues --   -0.58737  -0.50299  -0.49408  -0.49408  -0.33666
 Alpha  occ. eigenvalues --   -0.33666
 Alpha virt. eigenvalues --    0.12438   0.12439   0.15571   0.17889   0.17889
 Alpha virt. eigenvalues --    0.20583   0.20583   0.22022   0.26589   0.31738
 Alpha virt. eigenvalues --    0.33088   0.33332   0.33332   0.33571   0.34857

 Mulliken charges:
               1
     1  C   -0.120962
     2  C   -0.120959
     3  C   -0.120962
     4  C   -0.120962
     5  C   -0.120959
     6  C   -0.120962
     7  H    0.120961
     8  H    0.120960
     9  H    0.120961
    10  H    0.120961
    11  H    0.120960
    12  H    0.120961
 Sum of Mulliken charges =  -0.00000

 Dipole moment (field-independent basis, Debye):
    X=             -0.0000    Y=             -0.0000    Z=             -0.0000  Tot=              0.0000
 Quadrupole moment (field-independent basis, Debye-Ang):
   XX=            -32.0005   YY=            -32.0005   ZZ=            -40.1719
   XY=             -0.0000   XZ=             -0.0000   YZ=              0.0000

 Normal termination of Gaussian 16 at Fri Jan 31 14:50:00 2025.
