 Gaussian 16, Revision A.03,
 Gaussian 16:  ES64L-G16RevA.03 25-Dec-2016

 -------------------------
 # opt freq b3lyp def2tzvp
 -------------------------

 --------
 opt meta
 --------
 Symbolic Z-matrix:
 Charge =  0 Multiplicity = 1

 SCF Done:  E(RB3LYP) =  -570.211684491     A.U. after   16 cycles
 SCF Done:  E(RB3LYP) =  -570.242431564     A.U. after   13 cycles
 SCF Done:  E(RB3LYP) =  -570.248224863     A.U. after   13 cycles
 SCF Done:  E(RB3LYP) =  -570.248315143     A.U. after   14 cycles
 SCF Done:  E(RB3LYP) =  -570.244577623     A.U. after   14 cycles
 SCF Done:  E(RB3LYP) =  -570.248709852     A.U. after   14 cycles
 SCF Done:  E(RB3LYP) =  -570.249428437     A.U. after   14 cycles
 SCF Done:  E(RB3LYP) =  -570.249099817     A.U. after   14 cycles
 SCF Done:  E(RB3LYP) =  -570.250080777     A.U. after   14 cycles
 SCF Done:  E(RB3LYP) =  -570.250313517     A.U. after   13 cycles
 SCF Done:  E(RB3LYP) =  -570.250290125     A.U. after   13 cycles
 SCF Done:  E(RB3LYP) =  -570.250228751     A.U. after   13 cycles
 SCF Done:  E(RB3LYP) =  -570.250336736     A.U. after   12 cycles
 SCF Done:  E(RB3LYP) =  -570.250342944     A.U. after    9 cycles
 SCF Done:  E(RB3LYP) =  -570.250343422     A.U. after    8 cycles
 Optimization completed.
    -- Stationary point found.
 Normal termination of Gaussian 16 at Mon Jan 20 16:24:36 2025.

 --------------------------------------------------------------------
 #N Geom=AllCheck Guess=TCheck SCRF=Check GenChk RB3LYP/def2TZVP Freq
 --------------------------------------------------------------------

 Structure from the checkpoint file:  "C6H4O2.chk"
 --------
 opt meta
 --------
 Charge =  0 Multiplicity = 1

                         Standard orientation:
 ---------------------------------------------------------------------
 Center     Atomic      Atomic             Coordinates (Angstroms)
 Number     Number       Type             X           Y           Z
 ---------------------------------------------------------------------
      1          6           0       -1.928059   -0.775554    0.067309
      2          6           0       -2.319077    0.649364    0.032946
      3          6           0       -1.398383    1.613410   -0.046749
      4          6           0        0.051713    1.314309   -0.119100
      5          6           0        0.453415   -0.123215   -0.002585
      6          6           0       -0.477850   -1.084718    0.046200
      7          1           0       -3.381882    0.854999    0.064222
      8          1           0       -1.654716    2.664583   -0.094554
      9          1           0       -0.218335   -2.134968    0.091457
     10          8           0        0.860796    2.196330   -0.314572
     11          8           0       -2.755317   -1.666937    0.114617
     12          6           0        1.910621   -0.443319    0.116037
     13          8           0        2.665373    0.124744    0.854493
     14          8           0        2.265925   -1.482625   -0.669789
     15          1           0        3.206431   -1.658348   -0.503470
 ---------------------------------------------------------------------

 SCF Done:  E(RB3LYP) =  -570.250343422     A.U. after    3 cycles

 The electronic state is 1-A.
 Alpha  occ. eigenvalues --  -19.20102 -19.15498 -19.15431 -19.14286 -10.33608
 Alpha  occ. eigenvalues --  -10.30055 -10.29789 -10.24357 -10.23484 -10.22886
 Alpha  occ. eigenvalues --  -10.22745  -1.13781  -1.08262  -1.07993  -1.04920
 Alpha  occ. eigenvalues --   -0.88558  -0.82359  -0.73445  -0.69510  -0.65180
 Alpha  occ. eigenvalues --   -0.61085  -0.55064  -0.53599  -0.51659  -0.51009
 Alpha  occ. eigenvalues --   -0.49374  -0.47471  -0.46370  -0.46034  -0.44705
 Alpha  occ. eigenvalues --   -0.43294  -0.43102  -0.42316  -0.35507  -0.33147
 Alpha  occ. eigenvalues --   -0.32610  -0.31372  -0.30107  -0.28594
 Alpha virt. eigenvalues --   -0.14989  -0.06692  -0.02351   0.00655   0.01738
 Alpha virt. eigenvalues --    0.04610   0.06849   0.08188   0.08864   0.10202
 Alpha virt. eigenvalues --    0.11798   0.13770   0.14876   0.16283   0.17324

 Mulliken charges:
               1
     1  C    0.288356
     2  C   -0.148936
     3  C   -0.137617
     4  C    0.240285
     5  C    0.031577
     6  C   -0.183952
     7  H    0.140718
     8  H    0.140637
     9  H    0.152019
    10  O   -0.235160
    11  O   -0.259128
    12  C    0.271741
    13  O   -0.260398
    14  O   -0.367352
    15  H    0.327213
 Sum of Mulliken charges =  -0.00000

 Dipole moment (field-independent basis, Debye):
    X=             -0.7231    Y=             -0.7578    Z=             -0.6393  Tot=              1.2271
 Quadrupole moment (field-independent basis, Debye-Ang):
   XX=            -62.9761   YY=            -64.4175   ZZ=            -62.9097
   XY=            -16.7514   XZ=             -3.1060   YZ=             -0.1187

  Exact polarizability: 119.135  17.647 102.777  -0.833   0.323  52.318
 Approx polarizability: 197.210  75.302 191.865  -1.626   0.448  86.902

                      1                      2                      3
                      A                      A                      A
 Frequencies --     37.7754                79.4354               125.8221
 Red. masses --      9.9215                 7.3707                 6.8459
 Frc consts  --      0.0083                 0.0274                 0.0639
 IR Inten    --      3.3048                 7.9178                 2.7948

                      4                      5                      6
                      A                      A                      A
 Frequencies --    168.5886               242.6032               303.5236
 Red. masses --      8.8518                 5.7220                 9.1808
 Frc consts  --      0.1482                 0.1984                 0.4983
 IR Inten    --      0.9655                 1.1361                 0.9600

                      7                      8                      9
                      A                      A                      A
 Frequencies --    327.7114               427.7093               463.5578
 Red. masses --      4.7552                 8.7068                 4.6355
 Frc consts  --      0.3009                 0.9384                 0.5869
 IR Inten    --      2.0986                22.6502                 4.1102

                     10                     11                     12
                      A                      A                      A
 Frequencies --    467.5129               522.3560               565.3126
 Red. masses --      9.2734                 3.5781                 2.5484
 Frc consts  --      1.1942                 0.5752                 0.4798
 IR Inten    --      3.4746                13.9945                34.9786

                     13                     14                     15
                      A                      A                      A
 Frequencies --    634.4760               642.0860               695.3259
 Red. masses --      1.7545                 3.4277                 4.5503
 Frc consts  --      0.4161                 0.8326                 1.2962
 IR Inten    --     71.8546                16.1821                19.8432

                     16                     17                     18
                      A                      A                      A
 Frequencies --    744.1985               803.0754               825.9709
 Red. masses --      3.9128                 2.7757                 6.7602
 Frc consts  --      1.2768                 1.0547                 2.7173
 IR Inten    --     24.0708                 0.5427                 3.8907

                     19                     20                     21
                      A                      A                      A
 Frequencies --    865.9988               874.0820               966.9274
 Red. masses --      4.0509                 2.7030                 1.6141
 Frc consts  --      1.7899                 1.2167                 0.8891
 IR Inten    --      6.1296                29.3929                38.4198

                     22                     23                     24
                      A                      A                      A
 Frequencies --   1028.6386              1032.8356              1119.8345
 Red. masses --      5.1044                 1.3058                 1.5134
 Frc consts  --      3.1822                 0.8207                 1.1182
 IR Inten    --     75.1504                 1.7245                17.9510

                     25                     26                     27
                      A                      A                      A
 Frequencies --   1173.0130              1224.8231              1292.3114
 Red. masses --      2.3259                 1.5877                 3.0699
 Frc consts  --      1.8856                 1.4033                 3.0207
 IR Inten    --    258.8873                22.5790                74.1795

                     28                     29                     30
                      A                      A                      A
 Frequencies --   1337.8722              1379.6403              1401.6366
 Red. masses --      1.8468                 2.3807                 2.4611
 Frc consts  --      1.9476                 2.6698                 2.8487
 IR Inten    --      6.6339                85.7484                21.1043

                     31                     32                     33
                      A                      A                      A
 Frequencies --   1649.1210              1683.4681              1727.6841
 Red. masses --      8.2159                 8.8520                 9.7572
 Frc consts  --     13.1647                14.7809                17.1595
 IR Inten    --      9.0219                 4.3239                39.7842

                     34                     35                     36
                      A                      A                      A
 Frequencies --   1732.5113              1819.9537              3181.9891
 Red. masses --     11.6077                10.6513                 1.0873
 Frc consts  --     20.5281                20.7861                 6.4862
 IR Inten    --    282.1439               338.4228                 0.4855

                     37                     38                     39
                      A                      A                      A
 Frequencies --   3194.8065              3198.9225              3716.3467
 Red. masses --      1.0923                 1.0985                 1.0640
 Frc consts  --      6.5690                 6.6229                 8.6579
 IR Inten    --      0.0148                 1.2361                87.6563

 - Thermochemistry -
 -------------------
 Temperature   298.150 Kelvin.  Pressure   1.00000 Atm.
 Atom     1 has atomic number  6 and mass  12.00000

 Molecular mass:   152.01096 amu.
 Principal axes and moments of inertia in atomic units:
                           1         2         3
     Eigenvalues --   978.572251989.971592815.93235
           X            0.99909  -0.04252  -0.00331
           Y            0.04253   0.99909   0.00207
           Z            0.00322  -0.00221   0.99999
 This molecule is an asymmetric top.
 Rotational symmetry number  1.
 Warning -- assumption of classical behavior for rotation
           may cause significant error
 Rotational temperatures (Kelvin)      0.08851     0.04353     0.03076
 Rotational constants (GHZ):           1.84426     0.90692     0.64090
 Zero-point vibrational energy     261261.2 (Joules/Mol)
                                   62.44292 (Kcal/Mol)
 Warning -- explicit consideration of  12 degrees of freedom as
           vibrations may cause significant error
 Vibrational temperatures:     54.35   114.29   181.03   242.56   349.05
          (Kelvin)            436.70   471.50   615.38   666.96   672.65
                              751.55   813.36   912.87   923.82  1000.42
                             1070.74  1155.45  1188.39  1245.98  1257.61
                             1391.19  1479.98  1486.02  1611.19  1687.70
                             1762.25  1859.35  1924.90  1984.99  2016.64
                             2372.72  2422.14  2485.75  2492.70  2618.51
                             4578.17  4596.61  4602.54  5346.99

 Zero-point correction=                           0.099509 (Hartree/Particle)
 Thermal correction to Energy=                    0.108719
 Thermal correction to Enthalpy=                  0.109663
 Thermal correction to Gibbs Free Energy=         0.063906
 Sum of electronic and zero-point Energies=           -570.150834
 Sum of electronic and thermal Energies=              -570.141624
 Sum of electronic and thermal Enthalpies=            -570.140680
 Sum of electronic and thermal Free Energies=         -570.186437

                     E (Thermal)             CV                S
                      KCal/Mol        Cal/Mol-Kelvin    Cal/Mol-Kelvin
 Total                   68.222             33.428             96.303
 Electronic               0.000              0.000              0.000
 Translational            0.889              2.981             40.966
 Rotational               0.889              2.981             30.084
 Vibrational             66.445             27.467             25.252
 Vibration     1          0.594              1.982              5.372
 Vibration     2          0.600              1.963              3.905
 Vibration     3          0.611              1.927              3.009
 Vibration     4          0.625              1.881              2.451
 Vibration     5          0.659              1.775              1.784
 Vibration     6          0.695              1.667              1.397
 Vibration     7          0.711              1.620              1.271
 Vibration     8          0.789              1.410              0.866
 Vibration     9          0.821              1.331              0.756
 Vibration    10          0.825              1.322              0.745
 Vibration    11          0.877              1.200              0.605
 Vibration    12          0.921              1.106              0.513

 Optimization completed.
    -- Stationary point found.
 Normal termination of Gaussian 16 at Mon Jan 20 16:54:18 2025.
