 Gaussian 16, Revision A.03,
 Gaussian 16:  ES64L-G16RevA.03 25-Dec-2016

 -------------------------
 # opt freq b3lyp def2tzvp
 -------------------------

 --------
 opt meta
 --------
 Symbolic Z-matrix:
 Charge = -1 Multiplicity = 1

 SCF Done:  E(RB3LYP) =  -495.669080414     A.U. after   20 cycles
 SCF Done:  E(RB3LYP) =  -495.690114939     A.U. after   14 cycles
 SCF Done:  E(RB3LYP) =  -495.693477540     A.U. after   15 cycles
 SCF Done:  E(RB3LYP) =  -495.693466360     A.U. after   14 cycles
 SCF Done:  E(RB3LYP) =  -495.692582779     A.U. after   14 cycles
 SCF Done:  E(RB3LYP) =  -495.692498500     A.U. after   14 cycles
 SCF Done:  E(RB3LYP) =  -495.693532740     A.U. after   12 cycles
 SCF Done:  E(RB3LYP) =  -495.693610465     A.U. after   12 cycles
 SCF Done:  E(RB3LYP) =  -495.693610972     A.U. after    9 cycles
 Optimization completed.
    -- Stationary point found.
 Normal termination of Gaussian 16 at Tue Jan 21 11:02:40 2025.

 --------------------------------------------------------------------
 #N Geom=AllCheck Guess=TCheck SCRF=Check GenChk RB3LYP/def2TZVP Freq
 --------------------------------------------------------------------

 Structure from the checkpoint file:  "C6H5O-.chk"
 --------
 opt meta
 --------
 Charge = -1 Multiplicity = 1

                         Standard orientation:
 ---------------------------------------------------------------------
 Center     Atomic      Atomic             Coordinates (Angstroms)
 Number     Number       Type             X           Y           Z
 ---------------------------------------------------------------------
      1          6           0       -0.173876    1.452093   -0.000735
      2          6           0        1.178808    1.786530   -0.000317
      3          6           0        2.171677    0.821407   -0.000147
      4          6           0        1.887663   -0.594479   -0.000673
      5          6           0        0.478300   -0.899188   -0.000063
      6          6           0       -0.507152    0.084260   -0.000255
      7          1           0       -0.942558    2.210080   -0.000669
      8          1           0        1.461774    2.836506   -0.000258
      9          1           0        3.218391    1.109792    0.000290
     10          1           0        0.187194   -1.941925    0.000377
     11          8           0        2.785409   -1.479961    0.001186
     12          6           0       -1.914974   -0.349795   -0.000107
     13          8           0       -2.335141   -1.489411   -0.001244
     14          8           0       -2.820952    0.686420    0.001693
     15          1           0       -3.682007    0.244200    0.000961
 ---------------------------------------------------------------------

 SCF Done:  E(RB3LYP) =  -495.693610972     A.U. after    1 cycles

 The electronic state is 1-A.
 Alpha  occ. eigenvalues --  -19.04423 -18.98218 -18.87843 -10.17089 -10.04895
 Alpha  occ. eigenvalues --  -10.03504 -10.02233 -10.01103 -10.00207 -10.00186
 Alpha  occ. eigenvalues --   -0.97700  -0.88292  -0.80168  -0.68824  -0.60721
 Alpha  occ. eigenvalues --   -0.55841  -0.51037  -0.43558  -0.42983  -0.36571
 Alpha  occ. eigenvalues --   -0.35225  -0.32243  -0.32038  -0.29464  -0.28800
 Alpha  occ. eigenvalues --   -0.26787  -0.23587  -0.22254  -0.20189  -0.19941
 Alpha  occ. eigenvalues --   -0.19228  -0.15570  -0.15315  -0.10608  -0.05146
 Alpha  occ. eigenvalues --   -0.02427
 Alpha virt. eigenvalues --    0.09482   0.14337   0.16511   0.18640   0.21565
 Alpha virt. eigenvalues --    0.22597   0.23467   0.24730   0.26387   0.28622
 Alpha virt. eigenvalues --    0.30173   0.31654   0.33169   0.34245   0.34799

 Mulliken charges:
               1
     1  C   -0.256353
     2  C   -0.054808
     3  C   -0.227634
     4  C    0.253915
     5  C   -0.306672
     6  C    0.066664
     7  H    0.070309
     8  H    0.043142
     9  H    0.031381
    10  H    0.070542
    11  O   -0.523079
    12  C    0.321968
    13  O   -0.367257
    14  O   -0.403792
    15  H    0.281675
 Sum of Mulliken charges =  -1.00000

 Dipole moment (field-independent basis, Debye):
    X=             -5.7871    Y=              4.0414    Z=             -0.0012  Tot=              7.0585
 Quadrupole moment (field-independent basis, Debye-Ang):
   XX=            -83.4608   YY=            -73.7825   ZZ=            -62.1755
   XY=              6.8556   XZ=             -0.0097   YZ=             -0.0011

  Exact polarizability: 137.216  -0.425 114.746   0.005  -0.003  52.927
 Approx polarizability: 213.521  -9.812 211.316   0.024  -0.011  84.644

                      1                      2                      3
                      A                      A                      A
 Frequencies --     51.0627               151.2641               187.8973
 Red. masses --     10.1844                 5.1483                 4.7066
 Frc consts  --      0.0156                 0.0694                 0.0979
 IR Inten    --      0.0016                 0.1517                 1.4545

                      4                      5                      6
                      A                      A                      A
 Frequencies --    196.9774               364.6457               424.9282
 Red. masses --      7.9785                 8.4396                 8.9183
 Frc consts  --      0.1824                 0.6612                 0.9488
 IR Inten    --      0.0848                 2.1504                 1.6227

                      7                      8                      9
                      A                      A                      A
 Frequencies --    438.6327               516.5457               520.3229
 Red. masses --      3.3131                 1.8611                 6.2113
 Frc consts  --      0.3756                 0.2926                 0.9908
 IR Inten    --      5.6741                14.3123                 0.8334

                     10                     11                     12
                      A                      A                      A
 Frequencies --    554.8403               597.4123               635.1268
 Red. masses --      6.7364                 1.7257                 5.0397
 Frc consts  --      1.2218                 0.3629                 1.1978
 IR Inten    --      5.9084                79.4835                36.4372

                     13                     14                     15
                      A                      A                      A
 Frequencies --    666.9722               703.2318               736.3343
 Red. masses --      2.6922                 1.1758                 5.5970
 Frc consts  --      0.7056                 0.3426                 1.7879
 IR Inten    --      1.0400                43.9877                16.5533

                     16                     17                     18
                      A                      A                      A
 Frequencies --    800.4253               847.7236               881.7640
 Red. masses --      5.4826                 1.5587                 1.7116
 Frc consts  --      2.0696                 0.6600                 0.7841
 IR Inten    --     21.5217                11.4903                15.9545

                     19                     20                     21
                      A                      A                      A
 Frequencies --    900.5376               914.4380               995.1289
 Red. masses --      4.1373                 1.2727                 6.0621
 Frc consts  --      1.9768                 0.6270                 3.5370
 IR Inten    --      9.0551                 1.1548               115.6660

                     22                     23                     24
                      A                      A                      A
 Frequencies --   1071.8735              1086.8418              1159.2018
 Red. masses --      2.5800                 1.6678                 1.3981
 Frc consts  --      1.7464                 1.1607                 1.1069
 IR Inten    --    120.1721                 2.2153               144.2715

                     25                     26                     27
                      A                      A                      A
 Frequencies --   1179.1484              1250.2092              1312.1568
 Red. masses --      1.4795                 2.4091                 2.0385
 Frc consts  --      1.2120                 2.2186                 2.0679
 IR Inten    --    178.3605                11.9041                 1.6984

                     28                     29                     30
                      A                      A                      A
 Frequencies --   1338.7346              1398.4371              1475.0136
 Red. masses --      2.0453                 2.7101                 4.8849
 Frc consts  --      2.1597                 3.1226                 6.2618
 IR Inten    --     41.8951                47.6363               113.2862

                     31                     32                     33
                      A                      A                      A
 Frequencies --   1539.7189              1558.3108              1618.2334
 Red. masses --      4.6818                 4.4493                 6.6124
 Frc consts  --      6.5395                 6.3657                10.2021
 IR Inten    --    123.6427                34.9941               426.5742

                     34                     35                     36
                      A                      A                      A
 Frequencies --   1750.7252              3107.9622              3145.0581
 Red. masses --      8.5435                 1.0854                 1.0911
 Frc consts  --     15.4285                 6.1771                 6.3586
 IR Inten    --    438.0223                48.2774                61.6263

                     37                     38                     39
                      A                      A                      A
 Frequencies --   3183.7287              3209.3996              3744.3431
 Red. masses --      1.0884                 1.0906                 1.0639
 Frc consts  --      6.4999                 6.6185                 8.7880
 IR Inten    --      9.5543                 9.4050                37.9395

 - Thermochemistry -
 -------------------
 Temperature   298.150 Kelvin.  Pressure   1.00000 Atm.
 Atom     1 has atomic number  6 and mass  12.00000

 Molecular mass:   137.02387 amu.
 Principal axes and moments of inertia in atomic units:
                           1         2         3
     Eigenvalues --   654.169471900.047322554.21601
           X            0.99992   0.01242  -0.00000
           Y           -0.01242   0.99992  -0.00001
           Z            0.00000   0.00001   1.00000
 This molecule is an asymmetric top.
 Rotational symmetry number  1.
 Warning -- assumption of classical behavior for rotation
           may cause significant error
 Rotational temperatures (Kelvin)      0.13240     0.04559     0.03391
 Rotational constants (GHZ):           2.75883     0.94984     0.70657
 Zero-point vibrational energy     276428.9 (Joules/Mol)
                                   66.06810 (Kcal/Mol)
 Warning -- explicit consideration of  11 degrees of freedom as
           vibrations may cause significant error
 Vibrational temperatures:     73.47   217.64   270.34   283.41   524.64
          (Kelvin)            611.38   631.09   743.19   748.63   798.29
                              859.54   913.81   959.62  1011.79  1059.42
                             1151.63  1219.69  1268.66  1295.67  1315.67
                             1431.77  1542.19  1563.72  1667.83  1696.53
                             1798.77  1887.90  1926.14  2012.04  2122.22
                             2215.31  2242.06  2328.28  2518.90  4471.66
                             4525.04  4580.68  4617.61  5387.27

 Zero-point correction=                           0.105286 (Hartree/Particle)
 Thermal correction to Energy=                    0.113387
 Thermal correction to Enthalpy=                  0.114331
 Thermal correction to Gibbs Free Energy=         0.071739
 Sum of electronic and zero-point Energies=           -495.588325
 Sum of electronic and thermal Energies=              -495.580224
 Sum of electronic and thermal Enthalpies=            -495.579280
 Sum of electronic and thermal Free Energies=         -495.621872

                     E (Thermal)             CV                S
                      KCal/Mol        Cal/Mol-Kelvin    Cal/Mol-Kelvin
 Total                   71.151             30.911             89.642
 Electronic               0.000              0.000              0.000
 Translational            0.889              2.981             40.657
 Rotational               0.889              2.981             29.541
 Vibrational             69.374             24.950             19.444
 Vibration     1          0.595              1.977              4.776
 Vibration     2          0.619              1.901              2.656
 Vibration     3          0.633              1.856              2.248
 Vibration     4          0.636              1.844              2.161
 Vibration     5          0.738              1.545              1.102
 Vibration     6          0.787              1.416              0.875
 Vibration     7          0.799              1.386              0.831
 Vibration     8          0.872              1.213              0.618
 Vibration     9          0.875              1.205              0.609
 Vibration    10          0.910              1.129              0.534
 Vibration    11          0.955              1.037              0.454

                           ! Non-Optimized Parameters !
 Normal termination of Gaussian 16 at Tue Jan 21 11:25:19 2025.
