 Gaussian 16, Revision A.03,
 Gaussian 16:  ES64L-G16RevA.03 25-Dec-2016

 ----------------------------------------
 #P B3LYP/def2tzvp nosymm Density=Current
 ----------------------------------------

 ------------
 Single-Point
 ------------
 Symbolic Z-matrix:
 Charge =  0 Multiplicity = 1

                          Input orientation:
 ---------------------------------------------------------------------
 Center     Atomic      Atomic             Coordinates (Angstroms)
 Number     Number       Type             X           Y           Z
 ---------------------------------------------------------------------
      1          6           0        0.021681   -1.850874    0.000000
      2          6           0       -1.183734   -1.159974    0.000000
      3          6           0       -1.200479    0.230395    0.000000
      4          6           0        0.000000    0.936802    0.000000
      5          6           0        1.212939    0.251805    0.000000
      6          6           0        1.216256   -1.135819    0.000000
      7          1           0        0.031580   -2.932741    0.000000
      8          1           0       -2.121239   -1.701886    0.000000
      9          1           0       -2.144147    0.765738    0.000000
     10          8           0        0.048018    2.302739    0.000000
     11          1           0        2.135217    0.817608    0.000000
     12          1           0        2.162150   -1.663065    0.000000
     13          1           0       -0.847679    2.658425    0.000000
 ---------------------------------------------------------------------

 SCF Done:  E(RB3LYP) =  -307.592983724     A.U. after   13 cycles

 Alpha  occ. eigenvalues --  -19.16121 -10.23896 -10.18016 -10.17832 -10.17782
 Alpha  occ. eigenvalues --  -10.17204 -10.17004  -1.06742  -0.85666  -0.75451
 Alpha  occ. eigenvalues --   -0.74343  -0.63053  -0.60794  -0.55151  -0.50431
 Alpha  occ. eigenvalues --   -0.47259  -0.44409  -0.42927  -0.41771  -0.39699
 Alpha  occ. eigenvalues --   -0.36730  -0.34640  -0.34530  -0.26192  -0.23258
 Alpha virt. eigenvalues --   -0.01702  -0.00047   0.02422   0.04921   0.07759
 Alpha virt. eigenvalues --    0.09038   0.11082   0.12239   0.13627   0.14350
 Alpha virt. eigenvalues --    0.18680   0.19581   0.20685   0.21520   0.22855

 Mulliken charges:
               1
     1  C   -0.132442
     2  C   -0.117483
     3  C   -0.195978
     4  C    0.272858
     5  C   -0.185174
     6  C   -0.086229
     7  H    0.106684
     8  H    0.110229
     9  H    0.097649
    10  O   -0.399901
    11  H    0.112616
    12  H    0.109060
    13  H    0.308112
 Sum of Mulliken charges =  -0.00000

 Dipole moment (field-independent basis, Debye):
    X=             -1.3214    Y=              0.0172    Z=             -0.0000  Tot=              1.3215
 Quadrupole moment (field-independent basis, Debye-Ang):
   XX=            -35.8158   YY=            -37.9341   ZZ=            -45.0528
   XY=             -4.3199   XZ=              0.0000   YZ=              0.0000

 Normal termination of Gaussian 16 at Tue Jan 14 14:16:30 2025.
