 Gaussian 16, Revision A.03,
 Gaussian 16:  ES64L-G16RevA.03 25-Dec-2016

 ----------------------------------------
 #P B3LYP/def2tzvp nosymm Density=Current
 ----------------------------------------

 ------------
 Single-Point
 ------------
 Symbolic Z-matrix:
 Charge =  1 Multiplicity = 1

                          Input orientation:
 ---------------------------------------------------------------------
 Center     Atomic      Atomic             Coordinates (Angstroms)
 Number     Number       Type             X           Y           Z
 ---------------------------------------------------------------------
      1          6           0        0.000000    1.596758    0.000000
      2          6           0        1.210910    0.908428    0.000000
      3          6           0        1.221756   -0.476778    0.000000
      4          6           0        0.000000   -1.184032    0.000000
      5          6           0       -1.221756   -0.476778    0.000000
      6          6           0       -1.210910    0.908428    0.000000
      7          1           0        0.000000    2.679219    0.000000
      8          1           0        2.147025    1.451250    0.000000
      9          1           0        2.171840   -0.995567    0.000000
     10          1           0       -2.171840   -0.995567    0.000000
     11          1           0       -2.147025    1.451250    0.000000
     12          4           0        0.000000   -2.811684    0.000000
 ---------------------------------------------------------------------

 SCF Done:  E(RB3LYP) =  -246.136773025     A.U. after   13 cycles

 Alpha  occ. eigenvalues --  -10.35529 -10.35142 -10.35138 -10.33808 -10.33185
 Alpha  occ. eigenvalues --  -10.33182  -4.36219  -1.01981  -0.91279  -0.90759
 Alpha  occ. eigenvalues --   -0.76713  -0.76237  -0.68195  -0.61720  -0.61127
 Alpha  occ. eigenvalues --   -0.58665  -0.56716  -0.53610  -0.50785  -0.48888
 Alpha  occ. eigenvalues --   -0.42977  -0.41964
 Alpha virt. eigenvalues --   -0.35049  -0.25406  -0.24546  -0.17160  -0.15503
 Alpha virt. eigenvalues --   -0.11320  -0.07892  -0.06124  -0.06003  -0.03535
 Alpha virt. eigenvalues --   -0.03501  -0.01508  -0.00893   0.00712   0.02598

 Mulliken charges:
               1
     1  C   -0.064159
     2  C   -0.112083
     3  C   -0.191113
     4  C    0.473904
     5  C   -0.191113
     6  C   -0.112083
     7  H    0.165918
     8  H    0.163086
     9  H    0.151501
    10  H    0.151501
    11  H    0.163086
    12  Be   0.401555
 Sum of Mulliken charges =   1.00000

 Dipole moment (field-independent basis, Debye):
    X=              0.0000    Y=             -9.8658    Z=             -0.0000  Tot=              9.8658
 Quadrupole moment (field-independent basis, Debye-Ang):
   XX=            -29.3517   YY=              9.9440   ZZ=            -41.0878
   XY=              0.0000   XZ=             -0.0000   YZ=              0.0000

 Normal termination of Gaussian 16 at Tue Jan 14 13:41:04 2025.
