 Gaussian 16, Revision A.03,
 Gaussian 16:  ES64L-G16RevA.03 25-Dec-2016

 ----------------------------------------
 #P B3LYP/def2tzvp nosymm Density=Current
 ----------------------------------------

 ------------
 Single-Point
 ------------
 Symbolic Z-matrix:
 Charge =  1 Multiplicity = 1

                          Input orientation:
 ---------------------------------------------------------------------
 Center     Atomic      Atomic             Coordinates (Angstroms)
 Number     Number       Type             X           Y           Z
 ---------------------------------------------------------------------
      1          6           0        0.000000   -1.737686    0.000000
      2          6           0        1.254141   -1.073448    0.000000
      3          6           0        1.280985    0.282729    0.000000
      4          6           0        0.000000    1.046111    0.000000
      5          6           0       -1.280985    0.282729    0.000000
      6          6           0       -1.254141   -1.073448    0.000000
      7          1           0        0.000000   -2.823300    0.000000
      8          1           0        2.163849   -1.659249    0.000000
      9          1           0        2.195459    0.863760    0.000000
     10          1           0       -2.195459    0.863760    0.000000
     11          1           0       -2.163849   -1.659249    0.000000
     12          8           0        0.000000    2.256545    0.000000
 ---------------------------------------------------------------------

 SCF Done:  E(RB3LYP) =  -306.631955201     A.U. after   14 cycles

 Alpha  occ. eigenvalues --  -19.36732 -10.48992 -10.46852 -10.43748 -10.43746
 Alpha  occ. eigenvalues --  -10.41743 -10.41742  -1.28288  -1.09353  -1.00161
 Alpha  occ. eigenvalues --   -0.95759  -0.84777  -0.82442  -0.74873  -0.71561
 Alpha  occ. eigenvalues --   -0.69007  -0.66945  -0.65331  -0.64626  -0.60896
 Alpha  occ. eigenvalues --   -0.59836  -0.57148  -0.50633  -0.48921
 Alpha virt. eigenvalues --   -0.38986  -0.23930  -0.22389  -0.13017  -0.09225
 Alpha virt. eigenvalues --   -0.09058  -0.08856  -0.07293  -0.05610  -0.05502
 Alpha virt. eigenvalues --   -0.01897  -0.00652   0.00388   0.01408   0.02905

 Mulliken charges:
               1
     1  C    0.077543
     2  C   -0.097108
     3  C   -0.040953
     4  C    0.255114
     5  C   -0.040953
     6  C   -0.097108
     7  H    0.215338
     8  H    0.202995
     9  H    0.214672
    10  H    0.214672
    11  H    0.202995
    12  O   -0.107207
 Sum of Mulliken charges =   1.00000

 Dipole moment (field-independent basis, Debye):
    X=              0.0000    Y=             -4.2832    Z=              0.0000  Tot=              4.2832
 Quadrupole moment (field-independent basis, Debye-Ang):
   XX=            -23.8292   YY=            -28.7532   ZZ=            -38.3477
   XY=              0.0000   XZ=              0.0000   YZ=             -0.0000

 Normal termination of Gaussian 16 at Tue Jan 14 14:06:00 2025.
