 Gaussian 16, Revision A.03,
 Gaussian 16:  ES64L-G16RevA.03 25-Dec-2016

 ----------------------------------------
 #P B3LYP/def2tzvp nosymm Density=Current
 ----------------------------------------

 ------------
 Single-Point
 ------------
 Symbolic Z-matrix:
 Charge =  1 Multiplicity = 1

                          Input orientation:
 ---------------------------------------------------------------------
 Center     Atomic      Atomic             Coordinates (Angstroms)
 Number     Number       Type             X           Y           Z
 ---------------------------------------------------------------------
      1          6           0        1.895461    0.021714   -0.000001
      2          6           0        1.227220   -1.198379    0.000002
      3          6           0       -0.165537   -1.236688   -0.000001
      4          6           0       -0.799961   -0.018808    0.000000
      5          6           0       -0.200860    1.219403    0.000002
      6          6           0        1.191776    1.222650   -0.000001
      7          1           0        2.976977    0.038191   -0.000003
      8          1           0        1.781347   -2.126972   -0.000001
      9          1           0       -0.715510   -2.167331    0.000000
     10          1           0       -0.766594    2.142204    0.000006
     11          1           0        1.718397    2.167080    0.000000
     12          8           0       -2.303861   -0.082481   -0.000002
     13          1           0       -2.726169    0.273654    0.804776
     14          1           0       -2.726162    0.273680   -0.804773
 ---------------------------------------------------------------------

 SCF Done:  E(RB3LYP) =  -307.887661948     A.U. after   13 cycles

 Alpha  occ. eigenvalues --  -19.48636 -10.44084 -10.36682 -10.36304 -10.35007
 Alpha  occ. eigenvalues --  -10.34848 -10.34327  -1.37157  -1.04986  -0.94325
 Alpha  occ. eigenvalues --   -0.93598  -0.87276  -0.83255  -0.79909  -0.74391
 Alpha  occ. eigenvalues --   -0.68563  -0.67148  -0.62411  -0.61534  -0.60367
 Alpha  occ. eigenvalues --   -0.55997  -0.53741  -0.52869  -0.44245  -0.43615
 Alpha virt. eigenvalues --   -0.21675  -0.19611  -0.18957  -0.13286  -0.12672
 Alpha virt. eigenvalues --   -0.06722  -0.05552  -0.04041  -0.02882  -0.02825
 Alpha virt. eigenvalues --   -0.02291  -0.01478   0.03835   0.04014   0.04849

 Mulliken charges:
               1
     1  C   -0.116020
     2  C   -0.054325
     3  C   -0.190012
     4  C    0.227797
     5  C   -0.188642
     6  C   -0.068647
     7  H    0.167594
     8  H    0.169884
     9  H    0.179591
    10  H    0.163064
    11  H    0.169583
    12  O   -0.298732
    13  H    0.419433
    14  H    0.419433
 Sum of Mulliken charges =   1.00000

 Dipole moment (field-independent basis, Debye):
    X=             -5.9489    Y=              1.0705    Z=              0.0000  Tot=              6.0444
 Quadrupole moment (field-independent basis, Debye-Ang):
   XX=             -8.6164   YY=            -30.4128   ZZ=            -39.5758
   XY=             -3.5474   XZ=             -0.0001   YZ=             -0.0000

 Normal termination of Gaussian 16 at Tue Jan 14 14:18:22 2025.
