 Gaussian 16, Revision A.03,
 Gaussian 16:  ES64L-G16RevA.03 25-Dec-2016

 ----------------------------------------
 #P B3LYP/def2tzvp nosymm Density=Current
 ----------------------------------------

 ------------
 Single-Point
 ------------
 Symbolic Z-matrix:
 Charge = -1 Multiplicity = 1

                          Input orientation:
 ---------------------------------------------------------------------
 Center     Atomic      Atomic             Coordinates (Angstroms)
 Number     Number       Type             X           Y           Z
 ---------------------------------------------------------------------
      1          6           0        0.024544   -1.845063    0.000000
      2          6           0        1.214252   -1.099043    0.000000
      3          6           0        1.214991    0.279913    0.000000
      4          6           0        0.000000    1.061134    0.000000
      5          6           0       -1.201196    0.256214    0.000000
      6          6           0       -1.176534   -1.126298    0.000000
      7          1           0        0.035832   -2.928532    0.000000
      8          1           0        2.168781   -1.622032    0.000000
      9          1           0        2.151063    0.829416    0.000000
     10          7           0        0.053045    2.386554    0.000000
     11          1           0       -2.157983    0.774528    0.000000
     12          1           0       -2.121527   -1.666809    0.000000
     13          1           0       -0.903830    2.746408    0.000000
 ---------------------------------------------------------------------

 SCF Done:  E(RB3LYP) =  -287.117040817     A.U. after   16 cycles

 Alpha  occ. eigenvalues --  -14.05838 -10.01082 -10.00032  -9.99855  -9.98050
 Alpha  occ. eigenvalues --   -9.97945  -9.97568  -0.68750  -0.63581  -0.56271
 Alpha  occ. eigenvalues --   -0.51709  -0.42066  -0.39955  -0.33046  -0.28962
 Alpha  occ. eigenvalues --   -0.26785  -0.24018  -0.23207  -0.19226  -0.18727
 Alpha  occ. eigenvalues --   -0.15802  -0.11177  -0.07913  -0.05967   0.01630
 Alpha virt. eigenvalues --    0.16823   0.18998   0.20099   0.20906   0.22097
 Alpha virt. eigenvalues --    0.23471   0.25824   0.27268   0.29939   0.32366
 Alpha virt. eigenvalues --    0.34989   0.35934   0.36552   0.37031   0.38887

 Mulliken charges:
               1
     1  C   -0.206829
     2  C   -0.062712
     3  C   -0.218332
     4  C    0.116903
     5  C   -0.272753
     6  C   -0.080725
     7  H    0.022621
     8  H    0.024753
     9  H    0.004075
    10  N   -0.484793
    11  H    0.016725
    12  H    0.025414
    13  H    0.115652
 Sum of Mulliken charges =  -1.00000

 Dipole moment (field-independent basis, Debye):
    X=             -1.1595    Y=             -3.5509    Z=             -0.0000  Tot=              3.7354
 Quadrupole moment (field-independent basis, Debye-Ang):
   XX=            -46.9785   YY=            -64.5442   ZZ=            -49.9331
   XY=             -3.8551   XZ=              0.0000   YZ=              0.0000

 Normal termination of Gaussian 16 at Tue Jan 14 14:15:13 2025.
