 Gaussian 16, Revision A.03,
 Gaussian 16:  ES64L-G16RevA.03 25-Dec-2016

 -------------------------
 # opt freq b3lyp def2tzvp
 -------------------------

 --------
 opt meta
 --------
 Symbolic Z-matrix:
 Charge = -1 Multiplicity = 1

 SCF Done:  E(RB3LYP) =  -475.762296973     A.U. after   21 cycles
 SCF Done:  E(RB3LYP) =  -475.785334767     A.U. after   14 cycles
 SCF Done:  E(RB3LYP) =  -475.786858901     A.U. after   13 cycles
 SCF Done:  E(RB3LYP) =  -475.775417483     A.U. after   15 cycles
 SCF Done:  E(RB3LYP) =  -475.787548391     A.U. after   12 cycles
 SCF Done:  E(RB3LYP) =  -475.787562654     A.U. after   10 cycles
 SCF Done:  E(RB3LYP) =  -475.787563844     A.U. after    8 cycles
 Optimization completed.
    -- Stationary point found.

 1\1\GINC-N12\FOpt\RB3LYP\def2TZVP\C7H6N1O2(1-)\UNKNOWN\20-Jan-2025\0\\
 # opt freq b3lyp def2tzvp\\opt meta\\-1,1\C,0.0494123259,-1.862887104,
 -0.0008986048\C,1.2202544531,-1.0981859225,-0.0015297789\C,1.200025186
 9,0.2810797058,-0.001008365\C,-0.0246013623,1.0464829732,0.0002073088\
 C,-1.2115285992,0.2273798474,0.0007967972\C,-1.1722684344,-1.163121872
 6,0.0002709149\H,0.075161189,-2.9416555263,-0.0013365957\H,2.180976813
 3,-1.6071429897,-0.0024438291\H,2.12820442,0.8429816873,-0.001531029\N
 ,0.0101433801,2.3693427427,0.0006583001\H,-2.180264232,0.7140927965,0.

 Normal termination of Gaussian 16 at Mon Jan 20 14:54:13 2025.

 --------------------------------------------------------------------
 #N Geom=AllCheck Guess=TCheck SCRF=Check GenChk RB3LYP/def2TZVP Freq
 --------------------------------------------------------------------

 Structure from the checkpoint file:  "C6H5NH-.chk"
 --------
 opt meta
 --------
 Charge = -1 Multiplicity = 1

                         Standard orientation:
 ---------------------------------------------------------------------
 Center     Atomic      Atomic             Coordinates (Angstroms)
 Number     Number       Type             X           Y           Z
 ---------------------------------------------------------------------
      1          6           0        0.201298    1.468440    0.000129
      2          6           0       -1.154095    1.812749    0.000103
      3          6           0       -2.155720    0.864314    0.000029
      4          6           0       -1.890277   -0.555226   -0.000047
      5          6           0       -0.483950   -0.874555   -0.000053
      6          6           0        0.513065    0.095495    0.000037
      7          1           0        0.977982    2.217550    0.000165
      8          1           0       -1.429694    2.864448    0.000164
      9          1           0       -3.197583    1.167255    0.000005
     10          7           0       -2.887589   -1.425016   -0.000124
     11          1           0       -0.186553   -1.917097   -0.000123
     12          1           0       -2.496242   -2.368344   -0.000182
     13          6           0        1.912244   -0.363898    0.000019
     14          8           0        2.312147   -1.511882    0.000315
     15          8           0        2.837825    0.653497   -0.000324
     16          1           0        3.690064    0.194473   -0.000389
 ---------------------------------------------------------------------

 SCF Done:  E(RB3LYP) =  -475.787563844     A.U. after    1 cycles

 The electronic state is 1-A.
 Alpha  occ. eigenvalues --  -19.04277 -18.98083 -14.07403 -10.16950 -10.03224
 Alpha  occ. eigenvalues --  -10.02920 -10.01749 -10.00363 -10.00325  -9.99909
 Alpha  occ. eigenvalues --   -0.97572  -0.88128  -0.70962  -0.66382  -0.60326
 Alpha  occ. eigenvalues --   -0.54396  -0.50795  -0.43492  -0.42573  -0.36376
 Alpha  occ. eigenvalues --   -0.35416  -0.31999  -0.31886  -0.30133  -0.28589
 Alpha  occ. eigenvalues --   -0.26554  -0.25031  -0.21368  -0.21230  -0.19693
 Alpha  occ. eigenvalues --   -0.18082  -0.15204  -0.13259  -0.10341  -0.07565
 Alpha  occ. eigenvalues --   -0.00193
 Alpha virt. eigenvalues --    0.09684   0.14439   0.17034   0.18981   0.20684
 Alpha virt. eigenvalues --    0.21841   0.23009   0.24736   0.24991   0.27031
 Alpha virt. eigenvalues --    0.29861   0.29969   0.31889   0.33952   0.34993

 Mulliken charges:
               1
     1  C   -0.285279
     2  C   -0.041397
     3  C   -0.214958
     4  C    0.151931
     5  C   -0.337915
     6  C    0.053901
     7  H    0.065541
     8  H    0.037247
     9  H    0.020363
    10  N   -0.470531
    11  H    0.069896
    12  H    0.125805
    13  C    0.320489
    14  O   -0.374100
    15  O   -0.401871
    16  H    0.280878
 Sum of Mulliken charges =  -1.00000

 Dipole moment (field-independent basis, Debye):
    X=              6.0704    Y=              2.5636    Z=             -0.0005  Tot=              6.5895
 Quadrupole moment (field-independent basis, Debye-Ang):
   XX=            -88.9282   YY=            -70.7038   ZZ=            -64.3690
   XY=             -4.4106   XZ=             -0.0027   YZ=              0.0015

  Exact polarizability: 147.281   8.084 127.272   0.001   0.002  56.165
 Approx polarizability: 230.504  23.535 235.120   0.004   0.004  89.886

                      1                      2                      3
                      A                      A                      A
 Frequencies --     50.0296               151.2857               174.8095
 Red. masses --      9.1822                 5.0267                 4.1222
 Frc consts  --      0.0135                 0.0678                 0.0742
 IR Inten    --      0.1040                 0.0002                 0.8733

                      4                      5                      6
                      A                      A                      A
 Frequencies --    195.0329               361.6922               413.8678
 Red. masses --      6.5528                 6.7255                 5.9552
 Frc consts  --      0.1469                 0.5184                 0.6010
 IR Inten    --      0.2430                 4.4239                 0.4815

                      7                      8                      9
                      A                      A                      A
 Frequencies --    436.0244               511.1086               513.0444
 Red. masses --      3.2300                 1.9814                 5.8956
 Frc consts  --      0.3618                 0.3050                 0.9143
 IR Inten    --     10.8196                 6.4554                 3.0824

                     10                     11                     12
                      A                      A                      A
 Frequencies --    552.1490               590.9086               636.8962
 Red. masses --      6.1686                 1.5747                 1.8612
 Frc consts  --      1.1080                 0.3240                 0.4448
 IR Inten    --      2.2940               101.0722                10.7806

                     13                     14                     15
                      A                      A                      A
 Frequencies --    639.6137               678.1326               698.2866
 Red. masses --      4.9169                 1.3335                 1.1908
 Frc consts  --      1.1852                 0.3613                 0.3421
 IR Inten    --     40.1255                52.3915                 0.9370

                     16                     17                     18
                      A                      A                      A
 Frequencies --    740.2675               798.6706               838.9165
 Red. masses --      5.5763                 5.4490                 1.5457
 Frc consts  --      1.8004                 2.0479                 0.6409
 IR Inten    --     15.1441                42.7670                 6.3669

                     19                     20                     21
                      A                      A                      A
 Frequencies --    858.3052               899.4209               915.7386
 Red. masses --      1.9006                 4.2130                 1.2388
 Frc consts  --      0.8249                 2.0080                 0.6121
 IR Inten    --     13.3349                 5.5859                 0.0629

                     22                     23                     24
                      A                      A                      A
 Frequencies --    993.6110              1073.2402              1085.7342
 Red. masses --      6.0837                 2.3161                 2.0659
 Frc consts  --      3.5388                 1.5718                 1.4348
 IR Inten    --    122.7521               144.6087                34.0554

                     25                     26                     27
                      A                      A                      A
 Frequencies --   1162.1692              1173.8159              1185.2948
 Red. masses --      1.2576                 1.9095                 1.2328
 Frc consts  --      1.0007                 1.5501                 1.0204
 IR Inten    --    105.1651                74.0057               164.6735

                     28                     29                     30
                      A                      A                      A
 Frequencies --   1313.9515              1337.6349              1370.3803
 Red. masses --      1.5250                 1.9392                 2.5882
 Frc consts  --      1.5512                 2.0443                 2.8637
 IR Inten    --     11.8543                39.6663                70.6892

                     31                     32                     33
                      A                      A                      A
 Frequencies --   1396.2637              1472.7366              1523.4945
 Red. masses --      2.9090                 6.6250                 3.0284
 Frc consts  --      3.3414                 8.4662                 4.1414
 IR Inten    --    113.3839               206.9067                43.3674

                     34                     35                     36
                      A                      A                      A
 Frequencies --   1552.5145              1614.6556              1746.1676
 Red. masses --      4.1503                 6.0957                 8.4433
 Frc consts  --      5.8939                 9.3635                15.1682
 IR Inten    --      4.2819               295.8434               425.1491

                     37                     38                     39
                      A                      A                      A
 Frequencies --   3112.3313              3150.9723              3160.0044
 Red. masses --      1.0855                 1.0907                 1.0877
 Frc consts  --      6.1949                 6.3804                 6.3990
 IR Inten    --     48.0542                54.6252                11.6707

                     40                     41                     42
                      A                      A                      A
 Frequencies --   3213.6694              3388.4436              3743.9734
 Red. masses --      1.0905                 1.0723                 1.0638
 Frc consts  --      6.6356                 7.2538                 8.7860
 IR Inten    --      8.0373                34.0949                38.0495

 - Thermochemistry -
 -------------------
 Temperature   298.150 Kelvin.  Pressure   1.00000 Atm.
 Atom     1 has atomic number  6 and mass  12.00000

 Molecular mass:   136.03985 amu.
 Principal axes and moments of inertia in atomic units:
                           1         2         3
     Eigenvalues --   659.331251890.395292549.72652
           X            0.99999   0.00364  -0.00000
           Y           -0.00364   0.99999   0.00001
           Z            0.00000  -0.00001   1.00000
 This molecule is an asymmetric top.
 Rotational symmetry number  1.
 Warning -- assumption of classical behavior for rotation
           may cause significant error
 Rotational temperatures (Kelvin)      0.13137     0.04582     0.03397
 Rotational constants (GHZ):           2.73723     0.95469     0.70782
 Zero-point vibrational energy     307591.4 (Joules/Mol)
                                   73.51610 (Kcal/Mol)
 Warning -- explicit consideration of  11 degrees of freedom as
           vibrations may cause significant error
 Vibrational temperatures:     71.98   217.67   251.51   280.61   520.39
          (Kelvin)            595.46   627.34   735.37   738.16   794.42
                              850.19   916.35   920.26   975.68  1004.68
                             1065.08  1149.11  1207.01  1234.91  1294.07
                             1317.54  1429.58  1544.15  1562.13  1672.10
                             1688.86  1705.37  1890.48  1924.56  1971.67
                             2008.91  2118.94  2191.97  2233.72  2323.13
                             2512.35  4477.95  4533.55  4546.54  4623.75
                             4875.21  5386.74

 Zero-point correction=                           0.117155 (Hartree/Particle)
 Thermal correction to Energy=                    0.125468
 Thermal correction to Enthalpy=                  0.126413
 Thermal correction to Gibbs Free Energy=         0.083486
 Sum of electronic and zero-point Energies=           -475.670408
 Sum of electronic and thermal Energies=              -475.662096
 Sum of electronic and thermal Enthalpies=            -475.661151
 Sum of electronic and thermal Free Energies=         -475.704078

                     E (Thermal)             CV                S
                      KCal/Mol        Cal/Mol-Kelvin    Cal/Mol-Kelvin
 Total                   78.733             32.159             90.346
 Electronic               0.000              0.000              0.000
 Translational            0.889              2.981             40.635
 Rotational               0.889              2.981             29.542
 Vibrational             76.955             26.197             20.168
 Vibration     1          0.595              1.978              4.816
 Vibration     2          0.619              1.901              2.656
 Vibration     3          0.627              1.873              2.383
 Vibration     4          0.636              1.847              2.179
 Vibration     5          0.736              1.551              1.115
 Vibration     6          0.777              1.440              0.913
 Vibration     7          0.796              1.392              0.839
 Vibration     8          0.866              1.225              0.631
 Vibration     9          0.868              1.221              0.626
 Vibration    10          0.907              1.135              0.540
 Vibration    11          0.948              1.051              0.466

 Optimization completed.
    -- Stationary point found.

 1\1\GINC-N12\Freq\RB3LYP\def2TZVP\C7H6N1O2(1-)\UNKNOWN\20-Jan-2025\0\\
 #N Geom=AllCheck Guess=TCheck SCRF=Check GenChk RB3LYP/def2TZVP Freq\\
 opt meta\\-1,1\C,0.0494123259,-1.862887104,-0.0008986048\C,1.220254453
 1,-1.0981859225,-0.0015297789\C,1.2000251869,0.2810797058,-0.001008365
 \C,-0.0246013623,1.0464829732,0.0002073088\C,-1.2115285992,0.227379847
 4,0.0007967972\C,-1.1722684344,-1.1631218726,0.0002709149\H,0.07516118
 9,-2.9416555263,-0.0013365957\H,2.1809768133,-1.6071429897,-0.00244382
 91\H,2.12820442,0.8429816873,-0.001531029\N,0.0101433801,2.3693427427,

 Normal termination of Gaussian 16 at Mon Jan 20 15:18:00 2025.
