 Gaussian 16, Revision A.03,
 Gaussian 16:  ES64L-G16RevA.03 25-Dec-2016

 ----------------------------------------
 #P B3LYP/def2tzvp nosymm Density=Current
 ----------------------------------------

 ------------
 Single-Point
 ------------
 Symbolic Z-matrix:
 Charge =  0 Multiplicity = 1

                          Input orientation:
 ---------------------------------------------------------------------
 Center     Atomic      Atomic             Coordinates (Angstroms)
 Number     Number       Type             X           Y           Z
 ---------------------------------------------------------------------
      1          6           0        0.000000    1.438994    0.000000
      2          6           0        1.265870    0.668026    0.000000
      3          6           0        1.265870   -0.668026    0.000000
      4          6           0        0.000000   -1.438994    0.000000
      5          6           0       -1.265870   -0.668026    0.000000
      6          6           0       -1.265870    0.668026    0.000000
      7          1           0        2.176967    1.253741    0.000000
      8          1           0        2.176967   -1.253741    0.000000
      9          1           0       -2.176967   -1.253741    0.000000
     10          1           0       -2.176967    1.253741    0.000000
     11          8           0        0.000000   -2.656661    0.000000
     12          8           0        0.000000    2.656661    0.000000
 ---------------------------------------------------------------------

 SCF Done:  E(RB3LYP) =  -381.605292305     A.U. after   13 cycles

 Alpha  occ. eigenvalues --  -19.14692 -19.14691 -10.28960 -10.28958 -10.22149
 Alpha  occ. eigenvalues --  -10.22146 -10.22062 -10.22061  -1.07312  -1.07112
 Alpha  occ. eigenvalues --   -0.87206  -0.80379  -0.71688  -0.65162  -0.61744
 Alpha  occ. eigenvalues --   -0.52778  -0.51912  -0.49594  -0.47479  -0.45683
 Alpha  occ. eigenvalues --   -0.45186  -0.43367  -0.42398  -0.41235  -0.32016
 Alpha  occ. eigenvalues --   -0.31649  -0.29274  -0.28310
 Alpha virt. eigenvalues --   -0.14108  -0.04277  -0.00442   0.04370   0.05813
 Alpha virt. eigenvalues --    0.07722   0.09226   0.10729   0.10931   0.12938
 Alpha virt. eigenvalues --    0.13842   0.17460   0.18019   0.18251   0.19631

 Mulliken charges:
               1
     1  C    0.282261
     2  C   -0.145892
     3  C   -0.145892
     4  C    0.282261
     5  C   -0.145892
     6  C   -0.145892
     7  H    0.137881
     8  H    0.137881
     9  H    0.137881
    10  H    0.137881
    11  O   -0.266240
    12  O   -0.266240
 Sum of Mulliken charges =  -0.00000

 Dipole moment (field-independent basis, Debye):
    X=             -0.0000    Y=             -0.0000    Z=              0.0000  Tot=              0.0000
 Quadrupole moment (field-independent basis, Debye-Ang):
   XX=            -37.6514   YY=            -62.5615   ZZ=            -45.5521
   XY=             -0.0000   XZ=              0.0000   YZ=              0.0000

 Normal termination of Gaussian 16 at Tue Jan 14 14:07:27 2025.
