 Gaussian 16, Revision A.03,
 Gaussian 16:  ES64L-G16RevA.03 25-Dec-2016

 -------------------------
 # opt freq b3lyp def2tzvp
 -------------------------

 --------
 opt meta
 --------
 Symbolic Z-matrix:
 Charge =  0 Multiplicity = 1

 SCF Done:  E(RB3LYP) =  -498.349689120     A.U. after   15 cycles
 SCF Done:  E(RB3LYP) =  -498.379208971     A.U. after   13 cycles
 SCF Done:  E(RB3LYP) =  -498.380953296     A.U. after   14 cycles
 SCF Done:  E(RB3LYP) =  -498.387433817     A.U. after   13 cycles
 SCF Done:  E(RB3LYP) =  -498.387414737     A.U. after   12 cycles
 SCF Done:  E(RB3LYP) =  -498.386942325     A.U. after   12 cycles
 SCF Done:  E(RB3LYP) =  -498.387491975     A.U. after   11 cycles
 SCF Done:  E(RB3LYP) =  -498.387495455     A.U. after    8 cycles
 SCF Done:  E(RB3LYP) =  -498.387495448     A.U. after    7 cycles
 SCF Done:  E(RB3LYP) =  -498.387495536     A.U. after    7 cycles
 Optimization completed.
    -- Stationary point found.
 Normal termination of Gaussian 16 at Mon Jan 20 16:42:10 2025.

 --------------------------------------------------------------------
 #N Geom=AllCheck Guess=TCheck SCRF=Check GenChk RB3LYP/def2TZVP Freq
 --------------------------------------------------------------------

 Structure from the checkpoint file:  "C6H4(CH2)2.chk"
 --------
 opt meta
 --------
 Charge =  0 Multiplicity = 1

                         Standard orientation:
 ---------------------------------------------------------------------
 Center     Atomic      Atomic             Coordinates (Angstroms)
 Number     Number       Type             X           Y           Z
 ---------------------------------------------------------------------
      1          6           0        1.967359   -0.601824   -0.000225
      2          6           0        2.236346    0.825179   -0.000087
      3          6           0        1.235162    1.717410    0.000189
      4          6           0       -0.176436    1.347533    0.000326
      5          6           0       -0.453597   -0.100719    0.000072
      6          6           0        0.569846   -0.988246   -0.000141
      7          6           0        2.942206   -1.535627   -0.000433
      8          1           0        3.268651    1.153847   -0.000187
      9          1           0        1.455860    2.778304    0.000338
     10          6           0       -1.105834    2.325076    0.000823
     11          1           0        0.350372   -2.046483   -0.000349
     12          1           0       -2.162753    2.120860    0.000845
     13          1           0       -0.784452    3.359235    0.001130
     14          1           0        3.988279   -1.258499   -0.000505
     15          1           0        2.709509   -2.592182   -0.000536
     16          6           0       -1.848595   -0.621134   -0.000287
     17          8           0       -2.859946    0.039236   -0.002191
     18          8           0       -1.911240   -1.979322    0.001796
     19          1           0       -2.854724   -2.200284    0.001011
 ---------------------------------------------------------------------

 SCF Done:  E(RB3LYP) =  -498.387495536     A.U. after    1 cycles

 The electronic state is 1-A.
 Alpha  occ. eigenvalues --  -19.17782 -19.12197 -10.31471 -10.20801 -10.20299
 Alpha  occ. eigenvalues --  -10.20262 -10.19984 -10.18855 -10.18625 -10.18593
 Alpha  occ. eigenvalues --  -10.17297  -1.11670  -1.02521  -0.87922  -0.80854
 Alpha  occ. eigenvalues --   -0.78648  -0.73376  -0.67149  -0.63120  -0.61689
 Alpha  occ. eigenvalues --   -0.57426  -0.52526  -0.50225  -0.49506  -0.48741
 Alpha  occ. eigenvalues --   -0.46303  -0.46013  -0.42809  -0.42498  -0.41549
 Alpha  occ. eigenvalues --   -0.39225  -0.38994  -0.38425  -0.35245  -0.33710
 Alpha  occ. eigenvalues --   -0.31829  -0.28683  -0.28680  -0.21902
 Alpha virt. eigenvalues --   -0.08963  -0.04345   0.01688   0.03194   0.05141
 Alpha virt. eigenvalues --    0.05203   0.06038   0.08375   0.09719   0.10795
 Alpha virt. eigenvalues --    0.12408   0.13113   0.13250   0.13401   0.15261

 Mulliken charges:
               1
     1  C    0.211858
     2  C   -0.194041
     3  C   -0.143337
     4  C    0.093234
     5  C   -0.055417
     6  C   -0.164173
     7  C   -0.275750
     8  H    0.102188
     9  H    0.101754
    10  C   -0.256197
    11  H    0.132908
    12  H    0.163499
    13  H    0.108849
    14  H    0.118984
    15  H    0.120987
    16  C    0.332179
    17  O   -0.326656
    18  O   -0.388546
    19  H    0.317677
 Sum of Mulliken charges =  -0.00000

 Dipole moment (field-independent basis, Debye):
    X=              1.7391    Y=             -0.8928    Z=              0.0018  Tot=              1.9549
 Quadrupole moment (field-independent basis, Debye-Ang):
   XX=            -61.6766   YY=            -56.6079   ZZ=            -67.8958
   XY=              4.7432   XZ=             -0.0117   YZ=              0.0073

  Exact polarizability: 174.228 -47.002 148.685  -0.012   0.011  58.753
 Approx polarizability: 333.366-154.012 284.290  -0.027   0.024  95.037

                      1                      2                      3
                      A                      A                      A
 Frequencies --     18.8511                81.5138               155.6105
 Red. masses --     10.5693                 3.5379                 4.0747
 Frc consts  --      0.0022                 0.0139                 0.0581
 IR Inten    --      0.9885                 0.1482                 0.7817

                      4                      5                      6
                      A                      A                      A
 Frequencies --    219.0046               285.1675               339.4624
 Red. masses --      5.0160                 3.8760                 3.9920
 Frc consts  --      0.1417                 0.1857                 0.2710
 IR Inten    --      2.6290                 0.9091                 0.8794

                      7                      8                      9
                      A                      A                      A
 Frequencies --    385.1994               394.6854               395.0021
 Red. masses --      3.9406                 2.5927                 4.2048
 Frc consts  --      0.3445                 0.2380                 0.3865
 IR Inten    --      3.4775                 9.0623                 0.9845

                     10                     11                     12
                      A                      A                      A
 Frequencies --    489.7520               515.6514               519.5595
 Red. masses --      6.0047                 3.5686                 2.2473
 Frc consts  --      0.8486                 0.5591                 0.3574
 IR Inten    --      2.1417                 6.8265                 3.8490

                     13                     14                     15
                      A                      A                      A
 Frequencies --    578.9984               655.1371               669.3959
 Red. masses --      1.2426                 5.4640                 1.0786
 Frc consts  --      0.2454                 1.3817                 0.2848
 IR Inten    --    112.0022                27.2955                 1.6946

                     16                     17                     18
                      A                      A                      A
 Frequencies --    716.7794               718.2697               745.8806
 Red. masses --      1.1917                 4.5450                 4.2166
 Frc consts  --      0.3607                 1.3815                 1.3821
 IR Inten    --      4.6331                25.1810                 4.0911

                     19                     20                     21
                      A                      A                      A
 Frequencies --    816.1407               816.7964               844.7831
 Red. masses --      4.6369                 3.7093                 1.4742
 Frc consts  --      1.8197                 1.4581                 0.6199
 IR Inten    --      9.4727                 8.2266                 8.2846

                     22                     23                     24
                      A                      A                      A
 Frequencies --    897.5449               911.3075               951.8391
 Red. masses --      3.4374                 1.3994                 1.3896
 Frc consts  --      1.6315                 0.6847                 0.7418
 IR Inten    --      0.0061                40.1741                47.3535

                     25                     26                     27
                      A                      A                      A
 Frequencies --    968.7429               978.7339               990.5554
 Red. masses --      1.5888                 1.8325                 1.3091
 Frc consts  --      0.8785                 1.0342                 0.7568
 IR Inten    --     11.5070                 0.5655                 0.1562

                     28                     29                     30
                      A                      A                      A
 Frequencies --   1007.6388              1048.2247              1174.8411
 Red. masses --      1.5403                 4.4003                 1.8559
 Frc consts  --      0.9215                 2.8487                 1.5092
 IR Inten    --      0.1676                94.2889               216.2587

                     31                     32                     33
                      A                      A                      A
 Frequencies --   1190.0127              1296.7896              1343.3408
 Red. masses --      1.2534                 1.5928                 1.8364
 Frc consts  --      1.0458                 1.5782                 1.9525
 IR Inten    --     53.5356                 0.1977                37.0987

                     34                     35                     36
                      A                      A                      A
 Frequencies --   1362.2377              1382.7058              1425.6853
 Red. masses --      2.1406                 1.9573                 1.4248
 Frc consts  --      2.3404                 2.2048                 1.7063
 IR Inten    --     13.7763                22.5897                 3.1558

                     37                     38                     39
                      A                      A                      A
 Frequencies --   1453.0149              1481.4018              1596.9902
 Red. masses --      3.2111                 1.4405                 3.6710
 Frc consts  --      3.9943                 1.8626                 5.5162
 IR Inten    --     24.5313                 8.7611                14.8090

                     40                     41                     42
                      A                      A                      A
 Frequencies --   1615.1230              1652.4197              1689.0107
 Red. masses --      6.0490                 4.6695                 6.3996
 Frc consts  --      9.2971                 7.5120                10.7565
 IR Inten    --     14.5549                 8.0582                 5.9495

                     43                     44                     45
                      A                      A                      A
 Frequencies --   1776.5996              3150.0745              3156.6278
 Red. masses --      9.4727                 1.0578                 1.0663
 Frc consts  --     17.6158                 6.1844                 6.2603
 IR Inten    --    308.7802                 1.4098                 8.5749

                     46                     47                     48
                      A                      A                      A
 Frequencies --   3163.7016              3181.9393              3209.2759
 Red. masses --      1.0833                 1.0958                 1.0901
 Frc consts  --      6.3884                 6.5369                 6.6151
 IR Inten    --      4.0589                16.8424                 0.0520

                     49                     50                     51
                      A                      A                      A
 Frequencies --   3236.3625              3281.1805              3742.8842
 Red. masses --      1.1169                 1.1100                 1.0644
 Frc consts  --      6.8924                 7.0411                 8.7851
 IR Inten    --      5.1344                 5.7502                96.1034

 - Thermochemistry -
 -------------------
 Temperature   298.150 Kelvin.  Pressure   1.00000 Atm.
 Atom     1 has atomic number  6 and mass  12.00000

 Molecular mass:   148.05243 amu.
 Principal axes and moments of inertia in atomic units:
                           1         2         3
     Eigenvalues --  1015.535341893.477822909.01212
           X            0.99972  -0.02347  -0.00002
           Y            0.02347   0.99972   0.00002
           Z            0.00002  -0.00002   1.00000
 This molecule is an asymmetric top.
 Rotational symmetry number  1.
 Warning -- assumption of classical behavior for rotation
           may cause significant error
 Rotational temperatures (Kelvin)      0.08529     0.04574     0.02977
 Rotational constants (GHZ):           1.77713     0.95314     0.62040
 Zero-point vibrational energy     386863.0 (Joules/Mol)
                                   92.46248 (Kcal/Mol)
 Warning -- explicit consideration of  13 degrees of freedom as
           vibrations may cause significant error
 Vibrational temperatures:     27.12   117.28   223.89   315.10   410.29
          (Kelvin)            488.41   554.22   567.86   568.32   704.64
                              741.91   747.53   833.05   942.60   963.11
                             1031.29  1033.43  1073.16  1174.24  1175.19
                             1215.45  1291.37  1311.17  1369.48  1393.81
                             1408.18  1425.19  1449.77  1508.16  1690.33
                             1712.16  1865.79  1932.77  1959.96  1989.41
                             2051.24  2090.56  2131.41  2297.71  2323.80
                             2377.46  2430.11  2556.13  4532.25  4541.68
                             4551.86  4578.10  4617.43  4656.40  4720.89
                             5385.18

 Zero-point correction=                           0.147348 (Hartree/Particle)
 Thermal correction to Energy=                    0.156829
 Thermal correction to Enthalpy=                  0.157774
 Thermal correction to Gibbs Free Energy=         0.111457
 Sum of electronic and zero-point Energies=           -498.240147
 Sum of electronic and thermal Energies=              -498.230666
 Sum of electronic and thermal Enthalpies=            -498.229722
 Sum of electronic and thermal Free Energies=         -498.276039

                     E (Thermal)             CV                S
                      KCal/Mol        Cal/Mol-Kelvin    Cal/Mol-Kelvin
 Total                   98.412             36.862             97.482
 Electronic               0.000              0.000              0.000
 Translational            0.889              2.981             40.888
 Rotational               0.889              2.981             30.104
 Vibrational             96.635             30.900             26.490
 Vibration     1          0.593              1.986              6.752
 Vibration     2          0.600              1.962              3.854
 Vibration     3          0.620              1.896              2.602
 Vibration     4          0.647              1.812              1.967
 Vibration     5          0.683              1.701              1.502
 Vibration     6          0.719              1.597              1.215
 Vibration     7          0.754              1.502              1.019
 Vibration     8          0.762              1.482              0.982
 Vibration     9          0.762              1.481              0.981
 Vibration    10          0.846              1.273              0.684
 Vibration    11          0.871              1.215              0.620
 Vibration    12          0.875              1.207              0.611
 Vibration    13          0.936              1.077              0.487

                           ! Non-Optimized Parameters !
 Normal termination of Gaussian 16 at Mon Jan 20 17:20:15 2025.
