 Gaussian 16, Revision A.03,
 Gaussian 16:  ES64L-G16RevA.03 25-Dec-2016

 -------------------------
 # opt freq b3lyp def2tzvp
 -------------------------

 --------
 opt meta
 --------
 Symbolic Z-matrix:
 Charge =  1 Multiplicity = 1

 SCF Done:  E(RB3LYP) =  -459.381622096     A.U. after   20 cycles
 SCF Done:  E(RB3LYP) =  -459.402585369     A.U. after   13 cycles
 SCF Done:  E(RB3LYP) =  -459.406004926     A.U. after   12 cycles
 SCF Done:  E(RB3LYP) =  -459.400288983     A.U. after   14 cycles
 SCF Done:  E(RB3LYP) =  -459.406229902     A.U. after   11 cycles
 SCF Done:  E(RB3LYP) =  -459.406240835     A.U. after    9 cycles
 SCF Done:  E(RB3LYP) =  -459.406241194     A.U. after    8 cycles
 SCF Done:  E(RB3LYP) =  -459.406241240     A.U. after    7 cycles
 Optimization completed.
    -- Stationary point found.
 Normal termination of Gaussian 16 at Mon Jan 20 15:21:08 2025.

 --------------------------------------------------------------------
 #N Geom=AllCheck Guess=TCheck SCRF=Check GenChk RB3LYP/def2TZVP Freq
 --------------------------------------------------------------------

 Structure from the checkpoint file:  "C6H5CH2+.chk"
 --------
 opt meta
 --------
 Charge =  1 Multiplicity = 1

                         Standard orientation:
 ---------------------------------------------------------------------
 Center     Atomic      Atomic             Coordinates (Angstroms)
 Number     Number       Type             X           Y           Z
 ---------------------------------------------------------------------
      1          6           0       -0.154673    1.434538    0.000187
      2          6           0        1.193490    1.828518    0.000188
      3          6           0        2.175390    0.874422    0.000088
      4          6           0        1.819025   -0.518903   -0.000044
      5          6           0        0.433434   -0.889301   -0.000108
      6          6           0       -0.538290    0.080373    0.000036
      7          1           0       -0.929131    2.191342    0.000287
      8          1           0        1.443454    2.880508    0.000295
      9          1           0        3.222388    1.150232    0.000105
     10          1           0        0.144167   -1.933446   -0.000260
     11          6           0        2.783996   -1.484611   -0.000202
     12          1           0        3.838188   -1.231554   -0.000345
     13          1           0        2.527544   -2.537906   -0.000507
     14          6           0       -1.977751   -0.359936    0.000008
     15          8           0       -2.298975   -1.514660    0.000583
     16          8           0       -2.816461    0.682035   -0.000595
     17          1           0       -3.730844    0.351223   -0.000400
 ---------------------------------------------------------------------

 SCF Done:  E(RB3LYP) =  -459.406241240     A.U. after    1 cycles

 The electronic state is 1-A.
 Alpha  occ. eigenvalues --  -19.32673 -19.26874 -10.46511 -10.43475 -10.40894
 Alpha  occ. eigenvalues --  -10.40768 -10.40398 -10.40342 -10.38932 -10.37988
 Alpha  occ. eigenvalues --   -1.26518  -1.17873  -1.08115  -1.00341  -0.97146
 Alpha  occ. eigenvalues --   -0.89439  -0.84920  -0.80131  -0.77509  -0.72044
 Alpha  occ. eigenvalues --   -0.69243  -0.67714  -0.65218  -0.63530  -0.62998
 Alpha  occ. eigenvalues --   -0.61915  -0.61188  -0.58239  -0.57288  -0.56633
 Alpha  occ. eigenvalues --   -0.54326  -0.49917  -0.48412  -0.46448  -0.44117
 Alpha virt. eigenvalues --   -0.33473  -0.23293  -0.19361  -0.12037  -0.10915
 Alpha virt. eigenvalues --   -0.09267  -0.08830  -0.07044  -0.05159  -0.05021
 Alpha virt. eigenvalues --   -0.04367  -0.03434  -0.02219  -0.00938   0.00856

 Mulliken charges:
               1
     1  C   -0.058182
     2  C   -0.070886
     3  C   -0.094568
     4  C    0.198761
     5  C   -0.150519
     6  C    0.012921
     7  H    0.207235
     8  H    0.182534
     9  H    0.180688
    10  H    0.199042
    11  C   -0.073711
    12  H    0.197107
    13  H    0.201439
    14  C    0.328716
    15  O   -0.255325
    16  O   -0.361439
    17  H    0.356188
 Sum of Mulliken charges =   1.00000

 Dipole moment (field-independent basis, Debye):
    X=              6.0544    Y=              1.0570    Z=             -0.0009  Tot=              6.1460
 Quadrupole moment (field-independent basis, Debye-Ang):
   XX=            -19.5375   YY=            -42.0438   ZZ=            -56.5094
   XY=             -9.7882   XZ=              0.0002   YZ=              0.0055

  Exact polarizability: 132.118 -13.907 110.797  -0.002   0.002  46.836
 Approx polarizability: 213.729 -41.270 209.957  -0.006   0.001  75.317

                      1                      2                      3
                      A                      A                      A
 Frequencies --     59.6158               142.2911               177.3464
 Red. masses --      7.8753                 4.0833                 3.2751
 Frc consts  --      0.0165                 0.0487                 0.0607
 IR Inten    --      3.2749                 1.4476                 2.9838

                      4                      5                      6
                      A                      A                      A
 Frequencies --    181.5179               344.7047               367.7941
 Red. masses --      5.2548                 3.8810                 2.5916
 Frc consts  --      0.1020                 0.2717                 0.2066
 IR Inten    --      3.7397                 4.6192                 2.6725

                      7                      8                      9
                      A                      A                      A
 Frequencies --    381.0979               441.7038               497.0556
 Red. masses --      4.7451                 3.1744                 5.4098
 Frc consts  --      0.4060                 0.3649                 0.7875
 IR Inten    --      1.3455                 2.8921                18.1737

                     10                     11                     12
                      A                      A                      A
 Frequencies --    552.9183               623.2058               632.6545
 Red. masses --      6.0240                 1.2066                 4.9914
 Frc consts  --      1.0851                 0.2761                 1.1771
 IR Inten    --      3.9422                84.8490                57.2582

                     13                     14                     15
                      A                      A                      A
 Frequencies --    633.0369               659.8457               735.3309
 Red. masses --      1.0723                 1.8956                 4.8866
 Frc consts  --      0.2532                 0.4863                 1.5568
 IR Inten    --      5.0046                41.1018                31.0154

                     16                     17                     18
                      A                      A                      A
 Frequencies --    768.1482               842.0954               913.0511
 Red. masses --      5.1096                 1.5243                 3.3645
 Frc consts  --      1.7763                 0.6369                 1.6526
 IR Inten    --     48.6952                 6.8326                 5.5108

                     19                     20                     21
                      A                      A                      A
 Frequencies --    979.0752               998.2917              1009.7208
 Red. masses --      1.7169                 1.7897                 4.0341
 Frc consts  --      0.9697                 1.0509                 2.4232
 IR Inten    --      2.5566                 7.1036                 0.0407

                     22                     23                     24
                      A                      A                      A
 Frequencies --   1015.0270              1054.4228              1109.3578
 Red. masses --      1.3421                 1.4754                 2.3420
 Frc consts  --      0.8147                 0.9665                 1.6982
 IR Inten    --      0.0015                 0.6206                 6.2969

                     25                     26                     27
                      A                      A                      A
 Frequencies --   1118.6395              1142.2915              1179.3713
 Red. masses --      1.3956                 1.6958                 1.7791
 Frc consts  --      1.0289                 1.3037                 1.4580
 IR Inten    --     21.0859                42.8661               273.5420

                     28                     29                     30
                      A                      A                      A
 Frequencies --   1209.3248              1321.2005              1369.6045
 Red. masses --      1.1396                 1.4235                 2.0700
 Frc consts  --      0.9819                 1.4640                 2.2877
 IR Inten    --      6.3491                60.3927               135.6085

                     31                     32                     33
                      A                      A                      A
 Frequencies --   1383.4551              1413.9598              1454.3751
 Red. masses --      2.2079                 4.2981                 3.5073
 Frc consts  --      2.4897                 5.0629                 4.3710
 IR Inten    --     49.1112                21.7275                32.7063

                     34                     35                     36
                      A                      A                      A
 Frequencies --   1495.4214              1583.5229              1596.5652
 Red. masses --      1.6925                 3.1861                 3.2642
 Frc consts  --      2.2300                 4.7071                 4.9023
 IR Inten    --     12.8228                 2.8958                 2.1879

                     37                     38                     39
                      A                      A                      A
 Frequencies --   1658.9029              1821.9083              3147.7827
 Red. masses --      5.5112                11.1291                 1.0596
 Frc consts  --      8.9359                21.7652                 6.1858
 IR Inten    --    263.6144               282.0966                 4.3466

                     40                     41                     42
                      A                      A                      A
 Frequencies --   3196.5218              3197.0846              3204.4775
 Red. masses --      1.0906                 1.0924                 1.0919
 Frc consts  --      6.5654                 6.5787                 6.6058
 IR Inten    --      7.4447                 4.4268                 7.4985

                     43                     44                     45
                      A                      A                      A
 Frequencies --   3216.1324              3245.8448              3708.3583
 Red. masses --      1.0969                 1.1200                 1.0647
 Frc consts  --      6.6849                 6.9520                 8.6266
 IR Inten    --      4.7120                 5.1157               191.0757

 - Thermochemistry -
 -------------------
 Temperature   298.150 Kelvin.  Pressure   1.00000 Atm.
 Atom     1 has atomic number  6 and mass  12.00000

 Molecular mass:   135.04460 amu.
 Principal axes and moments of inertia in atomic units:
                           1         2         3
     Eigenvalues --   661.480211855.413372516.89349
           X            0.99979  -0.02034  -0.00000
           Y            0.02034   0.99979   0.00002
           Z            0.00000  -0.00002   1.00000
 This molecule is an asymmetric top.
 Rotational symmetry number  1.
 Warning -- assumption of classical behavior for rotation
           may cause significant error
 Rotational temperatures (Kelvin)      0.13094     0.04668     0.03441
 Rotational constants (GHZ):           2.72834     0.97269     0.71705
 Zero-point vibrational energy     345625.4 (Joules/Mol)
                                   82.60645 (Kcal/Mol)
 Warning -- explicit consideration of  10 degrees of freedom as
           vibrations may cause significant error
 Vibrational temperatures:     85.77   204.73   255.16   261.16   495.95
          (Kelvin)            529.17   548.31   635.51   715.15   795.53
                              896.65   910.25   910.80   949.37  1057.98
                             1105.19  1211.59  1313.68  1408.67  1436.32
                             1452.76  1460.40  1517.08  1596.12  1609.47
                             1643.50  1696.85  1739.95  1900.91  1970.56
                             1990.48  2034.37  2092.52  2151.58  2278.34
                             2297.10  2386.79  2621.32  4528.96  4599.08
                             4599.89  4610.53  4627.30  4670.05  5335.50

 Zero-point correction=                           0.131642 (Hartree/Particle)
 Thermal correction to Energy=                    0.140060
 Thermal correction to Enthalpy=                  0.141004
 Thermal correction to Gibbs Free Energy=         0.097963
 Sum of electronic and zero-point Energies=           -459.274599
 Sum of electronic and thermal Energies=              -459.266182
 Sum of electronic and thermal Enthalpies=            -459.265237
 Sum of electronic and thermal Free Energies=         -459.308278

                     E (Thermal)             CV                S
                      KCal/Mol        Cal/Mol-Kelvin    Cal/Mol-Kelvin
 Total                   87.889             32.172             90.587
 Electronic               0.000              0.000              0.000
 Translational            0.889              2.981             40.614
 Rotational               0.889              2.981             29.514
 Vibrational             86.111             26.211             20.459
 Vibration     1          0.597              1.974              4.470
 Vibration     2          0.616              1.911              2.773
 Vibration     3          0.628              1.870              2.356
 Vibration     4          0.630              1.865              2.313
 Vibration     5          0.723              1.586              1.190
 Vibration     6          0.740              1.538              1.089
 Vibration     7          0.751              1.510              1.035
 Vibration     8          0.801              1.379              0.821
 Vibration     9          0.853              1.257              0.666
 Vibration    10          0.908              1.133              0.538

 Optimization completed.
    -- Stationary point found.
 Normal termination of Gaussian 16 at Mon Jan 20 15:48:53 2025.
