 Gaussian 16, Revision A.03,
 Gaussian 16:  ES64L-G16RevA.03 25-Dec-2016

 ----------------------------------------
 #P B3LYP/def2tzvp nosymm Density=Current
 ----------------------------------------

 ------------
 Single-Point
 ------------
 Symbolic Z-matrix:
 Charge =  1 Multiplicity = 1

                          Input orientation:
 ---------------------------------------------------------------------
 Center     Atomic      Atomic             Coordinates (Angstroms)
 Number     Number       Type             X           Y           Z
 ---------------------------------------------------------------------
      1          6           0        0.012784   -1.763044    0.000000
      2          6           0        1.249991   -1.090930    0.000000
      3          6           0        1.259848    0.273550    0.000000
      4          6           0        0.000000    1.012384    0.000000
      5          6           0       -1.257117    0.268710    0.000000
      6          6           0       -1.233715   -1.091541    0.000000
      7          1           0        0.012007   -2.847676    0.000000
      8          1           0        2.170361   -1.658720    0.000000
      9          1           0        2.171948    0.856827    0.000000
     10          7           0        0.088316    2.296822    0.000000
     11          1           0       -2.188169    0.823231    0.000000
     12          1           0       -2.148909   -1.667964    0.000000
     13          1           0       -0.826201    2.761775    0.000000
 ---------------------------------------------------------------------

 SCF Done:  E(RB3LYP) =  -286.772946291     A.U. after   14 cycles

 Alpha  occ. eigenvalues --  -14.55555 -10.44571 -10.43923 -10.42187 -10.42057
 Alpha  occ. eigenvalues --  -10.40049 -10.39746  -1.14712  -1.06741  -0.98414
 Alpha  occ. eigenvalues --   -0.93678  -0.83723  -0.81255  -0.74366  -0.71325
 Alpha  occ. eigenvalues --   -0.68102  -0.65331  -0.64792  -0.61400  -0.59182
 Alpha  occ. eigenvalues --   -0.57373  -0.53442  -0.49504  -0.48867
 Alpha virt. eigenvalues --   -0.36336  -0.22605  -0.20406  -0.12415  -0.11131
 Alpha virt. eigenvalues --   -0.08146  -0.07523  -0.07444  -0.06230  -0.04442
 Alpha virt. eigenvalues --   -0.03335   0.00687   0.00996   0.01637   0.03574

 Mulliken charges:
               1
     1  C    0.039922
     2  C   -0.088740
     3  C   -0.023712
     4  C    0.100229
     5  C   -0.066370
     6  C   -0.106354
     7  H    0.204849
     8  H    0.193988
     9  H    0.207480
    10  N   -0.103044
    11  H    0.194095
    12  H    0.193765
    13  H    0.253891
 Sum of Mulliken charges =   1.00000

 Dipole moment (field-independent basis, Debye):
    X=             -1.2927    Y=             -1.6517    Z=             -0.0000  Tot=              2.0974
 Quadrupole moment (field-independent basis, Debye-Ang):
   XX=            -25.5878   YY=            -23.3558   ZZ=            -40.1907
   XY=             -4.4627   XZ=              0.0000   YZ=              0.0000

 Normal termination of Gaussian 16 at Tue Jan 14 14:14:47 2025.
