 Gaussian 16, Revision A.03,
 Gaussian 16:  ES64L-G16RevA.03 25-Dec-2016

 ----------------------------------------
 #P B3LYP/def2tzvp nosymm Density=Current
 ----------------------------------------

 ------------
 Single-Point
 ------------
 Symbolic Z-matrix:
 Charge =  0 Multiplicity = 1

                          Input orientation:
 ---------------------------------------------------------------------
 Center     Atomic      Atomic             Coordinates (Angstroms)
 Number     Number       Type             X           Y           Z
 ---------------------------------------------------------------------
      1          6           0        1.225505   -0.755652    0.000000
      2          6           0        1.225505    0.710834    0.000000
      3          6           0        0.086072    1.413890    0.000000
      4          6           0       -1.225505    0.755652    0.000000
      5          6           0       -1.225505   -0.710834    0.000000
      6          6           0       -0.086072   -1.413890    0.000000
      7          7           0        2.355555   -1.365230    0.000000
      8          1           0        2.196829    1.188664    0.000000
      9          1           0        0.099187    2.498363    0.000000
     10          7           0       -2.355555    1.365230    0.000000
     11          1           0       -2.196829   -1.188664    0.000000
     12          1           0       -0.099187   -2.498363    0.000000
     13          1           0       -2.223361    2.378383    0.000000
     14          1           0        2.223361   -2.378383    0.000000
 ---------------------------------------------------------------------

 SCF Done:  E(RB3LYP) =  -341.836184541     A.U. after   14 cycles

 Alpha  occ. eigenvalues --  -14.31852 -14.31851 -10.24066 -10.24065 -10.20470
 Alpha  occ. eigenvalues --  -10.20468 -10.20265 -10.20264  -0.93830  -0.92359
 Alpha  occ. eigenvalues --   -0.83198  -0.78532  -0.69113  -0.63947  -0.60221
 Alpha  occ. eigenvalues --   -0.53338  -0.52884  -0.47993  -0.45813  -0.44197
 Alpha  occ. eigenvalues --   -0.43114  -0.41961  -0.37528  -0.36536  -0.29810
 Alpha  occ. eigenvalues --   -0.28895  -0.28607  -0.26696
 Alpha virt. eigenvalues --   -0.10693  -0.02780   0.01902   0.03528   0.03903
 Alpha virt. eigenvalues --    0.06800   0.07377   0.09948   0.11442   0.12336
 Alpha virt. eigenvalues --    0.12356   0.15360   0.16148   0.18902   0.20773

 Mulliken charges:
               1
     1  C    0.107709
     2  C   -0.129607
     3  C   -0.153387
     4  C    0.107709
     5  C   -0.129607
     6  C   -0.153387
     7  N   -0.259878
     8  H    0.123536
     9  H    0.117747
    10  N   -0.259878
    11  H    0.123536
    12  H    0.117747
    13  H    0.193881
    14  H    0.193881
 Sum of Mulliken charges =  -0.00000

 Dipole moment (field-independent basis, Debye):
    X=             -0.0000    Y=              0.0000    Z=             -0.0000  Tot=              0.0000
 Quadrupole moment (field-independent basis, Debye-Ang):
   XX=            -59.8102   YY=            -35.9153   ZZ=            -49.4314
   XY=              2.5454   XZ=             -0.0000   YZ=              0.0000

 Normal termination of Gaussian 16 at Tue Jan 14 14:13:38 2025.
