 Gaussian 16, Revision A.03,
 Gaussian 16:  ES64L-G16RevA.03 25-Dec-2016

 -------------------------
 # opt freq b3lyp def2tzvp
 -------------------------

 --------
 opt meta
 --------
 Symbolic Z-matrix:
 Charge =  0 Multiplicity = 1

 SCF Done:  E(RB3LYP) =  -499.623640998     A.U. after   15 cycles
 SCF Done:  E(RB3LYP) =  -499.642876323     A.U. after   16 cycles
 SCF Done:  E(RB3LYP) =  -499.651431574     A.U. after   13 cycles
 SCF Done:  E(RB3LYP) =  -499.650912378     A.U. after   14 cycles
 SCF Done:  E(RB3LYP) =  -499.652360166     A.U. after   15 cycles
 SCF Done:  E(RB3LYP) =  -499.654596396     A.U. after   15 cycles
 SCF Done:  E(RB3LYP) =  -499.654853732     A.U. after   12 cycles
 SCF Done:  E(RB3LYP) =  -499.654950329     A.U. after   14 cycles
 SCF Done:  E(RB3LYP) =  -499.654981129     A.U. after   11 cycles
 SCF Done:  E(RB3LYP) =  -499.654993305     A.U. after   11 cycles
 SCF Done:  E(RB3LYP) =  -499.654995480     A.U. after   11 cycles
 SCF Done:  E(RB3LYP) =  -499.654999729     A.U. after   10 cycles
 SCF Done:  E(RB3LYP) =  -499.655007527     A.U. after   10 cycles
 SCF Done:  E(RB3LYP) =  -499.655016746     A.U. after   10 cycles
 SCF Done:  E(RB3LYP) =  -499.655026129     A.U. after   13 cycles
 SCF Done:  E(RB3LYP) =  -499.655026247     A.U. after   10 cycles
 SCF Done:  E(RB3LYP) =  -499.655028335     A.U. after   10 cycles
 SCF Done:  E(RB3LYP) =  -499.655030046     A.U. after    8 cycles
 SCF Done:  E(RB3LYP) =  -499.655030094     A.U. after    7 cycles
 Optimization completed.
    -- Stationary point found.
 Normal termination of Gaussian 16 at Mon Jan 20 17:39:12 2025.

 --------------------------------------------------------------------
 #N Geom=AllCheck Guess=TCheck SCRF=Check GenChk RB3LYP/def2TZVP Freq
 --------------------------------------------------------------------

 Structure from the checkpoint file:  "C6H4-CH3-2.chk"
 --------
 opt meta
 --------
 Charge =  0 Multiplicity = 1

                         Standard orientation:
 ---------------------------------------------------------------------
 Center     Atomic      Atomic             Coordinates (Angstroms)
 Number     Number       Type             X           Y           Z
 ---------------------------------------------------------------------
      1          6           0       -0.369790    1.256936   -0.000090
      2          6           0        0.906490    1.823797   -0.000064
      3          6           0        2.058302    1.053646    0.000062
      4          6           0        1.990733   -0.340027    0.000123
      5          6           0        0.728964   -0.917529    0.000057
      6          6           0       -0.444712   -0.150733   -0.000031
      7          1           0        0.993317    2.903668   -0.000095
      8          1           0        3.025395    1.544428    0.000106
      9          1           0        0.640494   -1.994507    0.000086
     10          6           0       -1.566084    2.170154   -0.000196
     11          6           0        3.241161   -1.179463    0.000057
     12          1           0       -1.237707    3.209812   -0.000245
     13          1           0       -2.200973    2.002659   -0.870545
     14          1           0       -2.201167    2.002662    0.869975
     15          1           0        3.858107   -0.970919    0.877608
     16          1           0        3.003907   -2.243214    0.003479
     17          1           0        3.854728   -0.975908   -0.881053
     18          6           0       -1.757100   -0.845687    0.000084
     19          8           0       -2.845190   -0.319106    0.000568
     20          8           0       -1.643900   -2.201311   -0.000442
     21          1           0       -2.551162   -2.541903   -0.000334
 ---------------------------------------------------------------------

 SCF Done:  E(RB3LYP) =  -499.655030094     A.U. after    1 cycles

 The electronic state is 1-A.
 Alpha  occ. eigenvalues --  -19.17300 -19.11503 -10.30742 -10.19812 -10.19521
 Alpha  occ. eigenvalues --  -10.19046 -10.18475 -10.18313 -10.18002 -10.17530
 Alpha  occ. eigenvalues --  -10.16320  -1.11058  -1.01889  -0.87569  -0.79939
 Alpha  occ. eigenvalues --   -0.77221  -0.72763  -0.67495  -0.65300  -0.61578
 Alpha  occ. eigenvalues --   -0.57068  -0.51803  -0.49486  -0.48128  -0.47672
 Alpha  occ. eigenvalues --   -0.45948  -0.44306  -0.43040  -0.41388  -0.40812
 Alpha  occ. eigenvalues --   -0.40643  -0.40497  -0.37845  -0.36169  -0.35638
 Alpha  occ. eigenvalues --   -0.35083  -0.32919  -0.28213  -0.26888  -0.25005
 Alpha virt. eigenvalues --   -0.05846  -0.01458   0.03416   0.04027   0.04188
 Alpha virt. eigenvalues --    0.05519   0.06603   0.08463   0.09943   0.10840
 Alpha virt. eigenvalues --    0.11850   0.13035   0.13315   0.14571   0.15132

 Mulliken charges:
               1
     1  C    0.038235
     2  C   -0.137560
     3  C   -0.163174
     4  C    0.196858
     5  C   -0.244516
     6  C   -0.009879
     7  H    0.101568
     8  H    0.106832
     9  H    0.125743
    10  C   -0.279718
    11  C   -0.371094
    12  H    0.098371
    13  H    0.124627
    14  H    0.124681
    15  H    0.121239
    16  H    0.117648
    17  H    0.121300
    18  C    0.327320
    19  O   -0.327100
    20  O   -0.387060
    21  H    0.315681
 Sum of Mulliken charges =  -0.00000

 Dipole moment (field-independent basis, Debye):
    X=              2.0473    Y=             -0.3448    Z=             -0.0009  Tot=              2.0761
 Quadrupole moment (field-independent basis, Debye-Ang):
   XX=            -64.4951   YY=            -58.2333   ZZ=            -66.9933
   XY=              3.5942   XZ=              0.0028   YZ=             -0.0008

  Exact polarizability: 147.953  -3.316 124.513  -0.004   0.003  65.266
 Approx polarizability: 222.967  -1.994 196.474  -0.009   0.007 104.891

                      1                      2                      3
                      A                      A                      A
 Frequencies --     30.4843                34.1941               119.3700
 Red. masses --      1.6678                 2.0468                 3.1719
 Frc consts  --      0.0009                 0.0014                 0.0266
 IR Inten    --      0.1734                 0.9168                 0.3297

                      4                      5                      6
                      A                      A                      A
 Frequencies --    159.9689               198.8785               205.4162
 Red. masses --      3.7660                 1.0443                 4.5900
 Frc consts  --      0.0568                 0.0243                 0.1141
 IR Inten    --      2.0440                 0.1419                 0.2399

                      7                      8                      9
                      A                      A                      A
 Frequencies --    307.3267               317.1233               376.7827
 Red. masses --      3.1093                 3.2079                 4.1060
 Frc consts  --      0.1730                 0.1901                 0.3434
 IR Inten    --      2.7967                 0.1653                 1.9238

                     10                     11                     12
                      A                      A                      A
 Frequencies --    396.5414               434.8686               476.2968
 Red. masses --      6.2226                 2.9501                 4.8596
 Frc consts  --      0.5765                 0.3287                 0.6495
 IR Inten    --      0.8673                 8.0873                 0.8417

                     13                     14                     15
                      A                      A                      A
 Frequencies --    522.1666               525.3701               591.0972
 Red. masses --      3.9163                 2.5184                 1.2875
 Frc consts  --      0.6291                 0.4095                 0.2650
 IR Inten    --      8.9868                 1.0771                94.5515

                     16                     17                     18
                      A                      A                      A
 Frequencies --    665.1847               719.4280               731.2919
 Red. masses --      4.9477                 3.3790                 4.9272
 Frc consts  --      1.2898                 1.0304                 1.5525
 IR Inten    --     44.1839                 6.9941                10.3319

                     19                     20                     21
                      A                      A                      A
 Frequencies --    764.3065               804.0895               841.1007
 Red. masses --      4.2675                 3.4234                 1.4373
 Frc consts  --      1.4688                 1.3041                 0.5991
 IR Inten    --      1.7448                36.6695                 7.7698

                     22                     23                     24
                      A                      A                      A
 Frequencies --    923.1916               932.2165               966.3215
 Red. masses --      4.0960                 1.4181                 1.3368
 Frc consts  --      2.0568                 0.7261                 0.7355
 IR Inten    --      0.3694                 1.3669                 0.2616

                     25                     26                     27
                      A                      A                      A
 Frequencies --   1012.6023              1037.2231              1062.1878
 Red. masses --      1.5970                 1.3708                 1.5639
 Frc consts  --      0.9648                 0.8689                 1.0396
 IR Inten    --      4.8790                 1.1722                 1.0320

                     28                     29                     30
                      A                      A                      A
 Frequencies --   1070.1912              1075.4946              1172.8286
 Red. masses --      1.5375                 4.2721                 1.9372
 Frc consts  --      1.0375                 2.9114                 1.5700
 IR Inten    --      4.3755               140.6695               209.5510

                     31                     32                     33
                      A                      A                      A
 Frequencies --   1187.2750              1224.0361              1249.9292
 Red. masses --      1.3752                 3.8369                 2.2293
 Frc consts  --      1.1421                 3.3870                 2.0521
 IR Inten    --     56.1533                11.1141                 8.4263

                     34                     35                     36
                      A                      A                      A
 Frequencies --   1316.2201              1325.5167              1364.8454
 Red. masses --      1.6430                 3.2811                 2.9738
 Frc consts  --      1.6771                 3.3965                 3.2638
 IR Inten    --      8.6444                 5.5517                86.7149

                     37                     38                     39
                      A                      A                      A
 Frequencies --   1418.5093              1423.8371              1431.3158
 Red. masses --      1.2493                 1.2215                 2.4925
 Frc consts  --      1.4811                 1.4590                 3.0085
 IR Inten    --      0.3565                 4.7558                 1.5134

                     40                     41                     42
                      A                      A                      A
 Frequencies --   1478.6160              1483.6572              1487.4107
 Red. masses --      1.0441                 1.0955                 1.0433
 Frc consts  --      1.3449                 1.4208                 1.3599
 IR Inten    --      6.6867                 7.1672                 6.9810

                     43                     44                     45
                      A                      A                      A
 Frequencies --   1500.8528              1533.2146              1604.4814
 Red. masses --      1.1597                 2.8457                 5.4500
 Frc consts  --      1.5391                 3.9413                 8.2665
 IR Inten    --     16.9844                21.6036                26.6734

                     46                     47                     48
                      A                      A                      A
 Frequencies --   1655.4040              1775.5387              3029.5372
 Red. masses --      5.7428                 9.3488                 1.0374
 Frc consts  --      9.2721                17.3647                 5.6097
 IR Inten    --      2.2916               353.8365                30.4386

                     49                     50                     51
                      A                      A                      A
 Frequencies --   3046.3136              3075.3504              3103.0991
 Red. masses --      1.0354                 1.1004                 1.0992
 Frc consts  --      5.6610                 6.1318                 6.2364
 IR Inten    --     20.4470                14.9637                 7.3775

                     52                     53                     54
                      A                      A                      A
 Frequencies --   3108.5711              3112.2880              3156.5206
 Red. masses --      1.1000                 1.1031                 1.0872
 Frc consts  --      6.2626                 6.2956                 6.3823
 IR Inten    --     13.9213                19.0647                 9.0456

                     55                     56                     57
                      A                      A                      A
 Frequencies --   3176.2613              3207.9066              3741.1721
 Red. masses --      1.0934                 1.0898                 1.0643
 Frc consts  --      6.4990                 6.6074                 8.7764
 IR Inten    --     18.9642                 1.8712                90.7406

 - Thermochemistry -
 -------------------
 Temperature   298.150 Kelvin.  Pressure   1.00000 Atm.
 Atom     1 has atomic number  6 and mass  12.00000

 Molecular mass:   150.06808 amu.
 Principal axes and moments of inertia in atomic units:
                           1         2         3
     Eigenvalues --  1050.007121981.825113009.79782
           X            0.99856  -0.05373   0.00000
           Y            0.05373   0.99856  -0.00001
           Z           -0.00000   0.00001   1.00000
 This molecule is an asymmetric top.
 Rotational symmetry number  1.
 Warning -- assumption of classical behavior for rotation
           may cause significant error
 Rotational temperatures (Kelvin)      0.08249     0.04370     0.02878
 Rotational constants (GHZ):           1.71879     0.91065     0.59962
 Zero-point vibrational energy     446752.7 (Joules/Mol)
                                  106.77647 (Kcal/Mol)
 Warning -- explicit consideration of  15 degrees of freedom as
           vibrations may cause significant error
 Vibrational temperatures:     43.86    49.20   171.75   230.16   286.14
          (Kelvin)            295.55   442.17   456.27   542.11   570.53
                              625.68   685.28   751.28   755.89   850.46
                              957.05  1035.10  1052.17  1099.67  1156.91
                             1210.16  1328.27  1341.25  1390.32  1456.91
                             1492.33  1528.25  1539.77  1547.40  1687.44
                             1708.22  1761.11  1798.37  1893.75  1907.12
                             1963.71  2040.92  2048.58  2059.34  2127.40
                             2134.65  2140.05  2159.39  2205.95  2308.49
                             2381.76  2554.60  4358.83  4382.97  4424.74
                             4464.67  4472.54  4477.89  4541.53  4569.93
                             4615.46  5382.71

 Zero-point correction=                           0.170159 (Hartree/Particle)
 Thermal correction to Energy=                    0.180734
 Thermal correction to Enthalpy=                  0.181678
 Thermal correction to Gibbs Free Energy=         0.132749
 Sum of electronic and zero-point Energies=           -499.484871
 Sum of electronic and thermal Energies=              -499.474296
 Sum of electronic and thermal Enthalpies=            -499.473352
 Sum of electronic and thermal Free Energies=         -499.522281

                     E (Thermal)             CV                S
                      KCal/Mol        Cal/Mol-Kelvin    Cal/Mol-Kelvin
 Total                  113.412             39.225            102.980
 Electronic               0.000              0.000              0.000
 Translational            0.889              2.981             40.928
 Rotational               0.889              2.981             30.217
 Vibrational            111.635             33.263             31.836
 Vibration     1          0.594              1.984              5.798
 Vibration     2          0.594              1.983              5.570
 Vibration     3          0.609              1.933              3.111
 Vibration     4          0.622              1.891              2.550
 Vibration     5          0.637              1.841              2.143
 Vibration     6          0.640              1.832              2.084
 Vibration     7          0.697              1.660              1.377
 Vibration     8          0.704              1.641              1.325
 Vibration     9          0.747              1.520              1.052
 Vibration    10          0.763              1.478              0.975
 Vibration    11          0.795              1.394              0.843
 Vibration    12          0.833              1.303              0.720
 Vibration    13          0.877              1.201              0.605
 Vibration    14          0.880              1.194              0.598
 Vibration    15          0.949              1.051              0.465

                           ! Non-Optimized Parameters !
 Normal termination of Gaussian 16 at Mon Jan 20 18:21:57 2025.
