 Gaussian 16, Revision A.03,
 Gaussian 16:  ES64L-G16RevA.03 25-Dec-2016

 ----------------------------------------
 #P B3LYP/def2tzvp nosymm Density=Current
 ----------------------------------------

 ------------
 Single-Point
 ------------
 Symbolic Z-matrix:
 Charge = -1 Multiplicity = 1

                          Input orientation:
 ---------------------------------------------------------------------
 Center     Atomic      Atomic             Coordinates (Angstroms)
 Number     Number       Type             X           Y           Z
 ---------------------------------------------------------------------
      1          6           0        0.000000   -1.823382    0.000000
      2          6           0        1.196781   -1.097626    0.000000
      3          6           0        1.209120    0.286125    0.000000
      4          6           0        0.000000    1.077297    0.000000
      5          6           0       -1.209120    0.286125    0.000000
      6          6           0       -1.196781   -1.097626    0.000000
      7          1           0        0.000000   -2.907422    0.000000
      8          1           0        2.143854   -1.634525    0.000000
      9          1           0        2.149753    0.829302    0.000000
     10          1           0       -2.149753    0.829302    0.000000
     11          1           0       -2.143854   -1.634525    0.000000
     12          8           0        0.000000    2.341549    0.000000
 ---------------------------------------------------------------------

 SCF Done:  E(RB3LYP) =  -307.024000529     A.U. after   16 cycles

 Alpha  occ. eigenvalues --  -18.86194 -10.02990 -10.00281 -10.00281  -9.98740
 Alpha  occ. eigenvalues --   -9.97780  -9.97778  -0.78288  -0.65786  -0.56499
 Alpha  occ. eigenvalues --   -0.53079  -0.42200  -0.40199  -0.33089  -0.27461
 Alpha  occ. eigenvalues --   -0.27458  -0.24261  -0.21865  -0.20206  -0.17783
 Alpha  occ. eigenvalues --   -0.16873  -0.13518  -0.08125  -0.03415  -0.00487
 Alpha virt. eigenvalues --    0.16554   0.18861   0.19583   0.21244   0.23005
 Alpha virt. eigenvalues --    0.24933   0.25745   0.30013   0.32716   0.33275
 Alpha virt. eigenvalues --    0.35474   0.36097   0.36666   0.38608   0.40236

 Mulliken charges:
               1
     1  C   -0.172673
     2  C   -0.087297
     3  C   -0.219842
     4  C    0.212316
     5  C   -0.219842
     6  C   -0.087297
     7  H    0.027026
     8  H    0.029558
     9  H    0.015805
    10  H    0.015805
    11  H    0.029558
    12  O   -0.543118
 Sum of Mulliken charges =  -1.00000

 Dipole moment (field-independent basis, Debye):
    X=             -0.0000    Y=             -4.2658    Z=             -0.0000  Tot=              4.2658
 Quadrupole moment (field-independent basis, Debye-Ang):
   XX=            -45.9842   YY=            -64.0511   ZZ=            -47.7185
   XY=             -0.0000   XZ=              0.0000   YZ=              0.0000

 Normal termination of Gaussian 16 at Tue Jan 14 14:04:43 2025.
